27
Lattice="8.787755380839874 0.0 0.0 -4.824011953045906 8.805902095701308 0.0 0.0 0.0 19.999999744721187" Properties=species:S:1:pos:R:3:forces:R:3 energy=-22621.552886685116 free_energy=-22621.552886685116 pbc="T T T"
Mo       0.71035557       0.53037179      10.29650138       2.63019277      -2.23125115      -8.04737755
S        0.57086313       2.18519050      11.64577246       1.18349447       4.02856641       2.47084479
S        0.53110030       2.33013837       8.42785022       1.12676565       0.76450467       2.16247079
Mo      -0.79099729       3.42366292      10.17206852      -2.38934674      -1.72954844      -2.40886192
S       -0.92815921       5.27920714      11.60668804      -0.58707490       0.46421345       1.29090513
S       -1.02205462       5.34192710       8.59172165      -0.18749924      -0.14727870       0.63162260
Mo      -2.64866638       6.37952199      10.25445987       6.69087354      -0.17272774      -5.81834063
S       -2.48190115       8.18818177      11.66461604      -0.64191293       1.72583603       0.45646800
S       -2.54135734       8.14061277       8.36301944      -0.74204197       1.04617005       2.04779445
Mo       3.62723830       0.56855283       9.96269058       0.82998861      -1.17670753       0.82301526
S        3.59805153       2.52907821      11.68065457      -0.78457419      -1.45271468       0.75007512
S        3.58885427       2.33768002       8.31934517      -1.28191681       0.22917991       0.44307924
Mo       2.21546343       3.38845566      10.09236621      -5.86015911      -1.01057287      -2.39606991
S        1.86511320       5.42860513      11.37500502       5.25115630      -3.59106827       6.39371213
S        2.02176461       5.38938098       8.44055468       0.28287508      -0.47760221       0.59989365
Mo       0.55937754       6.26178628      10.08486674      -5.68951191       4.16271861      -4.33225329
S        0.28130132       8.38331212      11.63110218      -0.31029359      -1.09733989       0.38777841
S        0.52376252       8.19172148       8.64904154      -3.41871617      -0.89997095      -2.99745557
Mo       6.52781887       0.42259173      10.08958401       4.30765940       2.10551932       2.14783556
S        6.39817839       2.36548008      11.66463274       0.04671797       0.86910974      -1.15982644
S        6.45281099       2.30451064       8.54030010       0.22784859       1.18780467       1.02761003
Mo       4.74777202       3.45345868       9.97385366       7.06472454      -0.06192888       0.08505981
S        4.87529114       5.33561310      11.58805624      -1.85429477      -2.39407731       3.96236899
S        4.86694190       5.32239456       8.40019340       0.27741586       0.37668744       0.90091403
Mo       3.52473793       6.35623883      10.11005069      -3.88969779       1.04163514      -3.20654797
S        3.40530266       8.28072650      11.65188874      -3.36630243      -1.63187069       2.19656825
S        3.23117065       8.32649313       8.46861047       1.08362897       0.07271388       1.58871627
27
Lattice="8.889935266355277 0.0 0.0 -4.505285843959859 7.38140215100745 0.0 0.0 0.0 19.999998516453786" Properties=species:S:1:pos:R:3:forces:R:3 energy=-22617.73200647825 free_energy=-22617.73200647825 pbc="T T T"
Mo       0.83746213       0.38614945       9.98893929      -1.30389769      -2.52047068       3.28758399
S        0.91834720       2.02887436      11.71575676      -0.94850567       0.35862750      -0.57108161
S        0.67723882       1.87197945       8.48915298       1.03550434       3.22654575      -4.49070344
Mo      -0.65049523       2.89362859      10.04318212      -2.26489866      -5.11946414       2.66608794
S       -0.83887563       4.47035640      11.65762103       0.98697117       0.86067498       1.41247897
S       -0.74182243       4.28705482       8.43632099       0.71074367       3.98298152      -2.52448366
Mo      -2.26831143       5.23152599       9.95315819       1.72693517       0.24234756       1.18060712
S       -2.11745901       6.99738806      11.59645028      -3.50976253      -2.68756925       3.59737519
S       -2.22026756       6.90929414       8.52200218       0.16044224       0.03952094      -3.75893251
Mo       3.70522901       0.33136878      10.11583600       3.47749184      -0.85518131      -3.17138530
S        3.60120254       2.03842837      11.55071778       1.58167093       0.34613708       2.62288107
S        3.71762958       1.81565638       8.44899270      -0.17730790       0.81331475      -4.33380187
Mo       2.30411743       2.87698574       9.84733951      -2.59178666     -11.24633099       5.35525744
S        2.26516351       4.35466367      11.34157050       1.19487160       1.96205407       8.59131627
S        2.18412819       4.28951823       8.49101365      -1.13754731       7.41379319      -9.28878277
Mo       0.81097457       5.29911261      10.13172054      -4.71854894       0.31427777      -4.94665490
S        0.91435029       7.05003159      11.56697125      -1.37660026      -1.06314242       2.42956573
S        0.60780665       6.94528949       8.33700974       1.15991385      -1.04215681       0.16022858
Mo       6.74701104       0.41305573       9.86643687      -0.07183071      -3.38841700       0.22468613
S        6.60796534       1.90929229      11.51447441       1.78603995       1.80625036       2.49514275
S        6.70190350       2.01657780       8.38583415       1.26697330       1.06516896      -2.95731217
Mo       5.18174502       2.60111861       9.92126821      -0.22353222       7.50328481       0.69653473
S        5.11843801       4.47200904      11.43066276      -0.09805210      -1.60082334       2.28432694
S        5.21398615       4.48725261       8.28424264      -0.75289871      -1.61960087      -0.46502412
Mo       3.63890565       5.24707982       9.89217323       3.33048002       2.22170695      -0.44418892
S        3.68141732       7.01840654      11.48436064       0.09308345      -1.44158309       1.78149527
S        3.68969385       6.90430066       8.33481126       0.66404756       0.42805422      -1.83321635
27
Lattice="8.803426963865265 0.0 0.0 -4.484844242752412 7.8483167622746315 0.0 0.0 0.0 19.99999512044159" Properties=species:S:1:pos:R:3:forces:R:3 energy=-22619.382083843095 free_energy=-22619.382083843095 pbc="T T T"
Mo       0.69349436       0.43280024       9.96343781      -6.04051403       3.16518380       6.37914760
S        0.53223847       2.26781297      11.70913361       0.88200331      -0.39253032      -1.08589462
S        0.61193941       2.36478359       8.60849620       2.41458469      -4.02341984      -7.53706473
Mo      -0.82932420       3.07678628       9.86407793      -1.22606448       5.59707895       8.11085628
S       -1.02763019       4.83236656      11.67193913       3.56282676      -1.59780923       1.37784004
S       -0.96900729       4.93019993       8.29086592       1.34479803      -0.48718985       0.91811806
Mo      -2.27257914       5.70042672      10.13614784      -3.44648897      -2.57933172      -4.56084159
S       -2.41476153       7.37111116      11.58242676      -0.17449383       1.43063662       2.77947385
S       -2.58419845       7.32031274       8.59160155       2.14096274      -1.75547905      -7.78113107
Mo       3.37513618       0.43118217       9.88912280       4.90980482      -4.03601207       7.75836421
S        3.63606007       2.04752481      11.66570806      -2.36492331       0.08653948       1.01355895
S        3.42203996       1.98935881       8.57883482       0.79531703       5.85975648      -6.05745991
Mo       2.05021778       3.15321235      10.02650996       2.11801642      -1.16864558       4.65124569
S        2.16802700       4.84637458      11.69774813      -0.27554487      -0.36138912      -0.06641622
S        1.94907961       4.85117597       8.45338686       2.19613553      -0.58870652      -2.31596874
Mo       0.67540420       5.65358545      10.08561441      -3.73336957      -0.67701080      -0.56840277
S        0.44974243       7.33076945      11.52759550       0.13081259       1.85606343       1.87221922
S        0.56209793       7.47559903       8.51808501      -1.59586265      -1.81477357      -3.56238839
Mo       6.46390833       0.37272125       9.98610575      -0.27875592       3.72167260       6.24526254
S        6.58201334       2.26189530      11.44696051       0.81123550      -2.41660300       4.32973438
S        6.45298063       2.28596123       8.66536282      -1.20620297      -3.50328232      -7.45005603
Mo       4.99601875       2.91602954      10.13269778      -2.59971414       3.60756627      -2.53253790
S        4.97068073       4.76478002      11.51292283       1.31072834      -0.91833557       3.50206851
S        4.99189875       4.59638454       8.33228868       0.59087165       0.49458640       0.53149999
Mo       3.64679937       5.55154580       9.96142799      -4.21353209       1.69243971       0.42033371
S        3.47953074       7.35927495      11.61381186       0.61685599       0.03090363      -0.04652668
S        3.36472349       7.39038274       8.65774433       3.33051422      -1.22190906      -6.32503462
27
Lattice="8.885371642110435 0.0 0.0 -4.8241437110226615 8.598649584591174 0.0 0.0 0.0 20.0000030608816" Properties=species:S:1:pos:R:3:forces:R:3 energy=-22626.586709293682 free_energy=-22626.586709293682 pbc="T T T"
Mo       0.73268153       0.37531454      10.01899401      -0.84604875       1.89779372      -1.66470265
S        0.54727136       2.43272146      11.45022657      -0.51198506      -0.71919977       1.29808237
S        0.58617508       2.44519563       8.55153579       0.27992526       0.02371174       0.02442342
Mo      -0.97468440       3.53997293       9.98134403      -0.59399631      -0.83408643       0.40905994
S       -0.92892918       5.37269279      11.77264650      -0.91321342      -0.16631284      -2.79779990
S       -1.06249319       5.49964432       8.33220306      -1.26045761      -2.08973557      -0.67101499
Mo      -2.64061605       6.28690957       9.95225510       3.71204356       0.38646329       1.62043957
S       -2.55351187       8.13674176      11.53588245      -0.03470501      -0.09419365       0.03003126
S       -2.57279845       8.11977959       8.29428118      -0.86382510       0.00560218       0.53696975
Mo       3.60329542       0.57695295       9.87209749       1.73123072      -1.11824116       0.93011354
S        3.59993942       2.30367654      11.62325941      -0.27587423       1.12499184      -1.41373059
S        3.43323652       2.43472511       8.37018091       0.54912979       0.77494283       0.65760309
Mo       2.05822615       3.52480205      10.15065656       0.88130474      -2.68894685      -3.65397931
S        1.88198391       5.21664434      11.62241975       0.56184440       1.78180997      -0.21717440
S        1.99111405       5.42726941       8.29039383      -0.00721966      -2.14273938      -0.38474065
Mo       0.45454718       6.10582925       9.81134377       0.34444015       4.05883730       4.33827147
S        0.39352067       8.22333593      11.51916995      -0.36422864      -0.52661438      -1.99223137
S        0.36198560       8.08044583       8.25658055       0.10681905       0.66536036       1.46018168
Mo       6.65922441       0.58985184       9.87481731       0.31940198      -0.12447893       0.45555603
S        6.42086810       2.51052799      11.66519037       1.20329248      -0.20563426      -2.29188419
S        6.56591646       2.55401656       8.22735478      -0.04257695      -0.50026263       1.39418712
Mo       5.05226941       3.40007276       9.88411141      -1.50806668      -0.31528744       1.78153101
S        4.92921767       5.31145659      11.66578836      -0.49638952      -0.61489320      -1.68349793
S        4.91244831       5.27836924       8.37745803      -0.35175905      -0.50949880      -0.56582859
Mo       3.41172948       6.18289919       9.92751200      -0.77372362       1.49094981       2.28850627
S        3.30147179       8.16589022      11.62069421      -0.44782961      -0.40752114      -1.39166769
S        3.38441229       8.02363898       8.28260402      -0.39753394       0.84718286       1.50329548
27
Lattice="10.056637128941123 0.0 0.0 -4.986191311537427 7.966787480450126 0.0 0.0 0.0 19.999996297261852" Properties=species:S:1:pos:R:3:forces:R:3 energy=-22624.853592037154 free_energy=-22624.853592037154 pbc="T T T"
Mo       0.60029978       0.53043733       9.92870665       4.69511154      -2.33097987       2.55301571
S        0.90145583       2.34476026      11.69693599       0.56725092      -0.57563734      -1.20007834
S        0.93621358       2.26145007       8.58191577      -0.44030630       1.66784377      -1.78946337
Mo      -0.70072133       3.12479326      10.13368103      -0.91380374      -1.65054924      -4.63895145
S       -0.72852090       4.80815263      11.44987459      -0.63280711       3.69753765       2.17813318
S       -0.61584834       4.73817754       8.29858611      -1.20543575       0.88592476       1.26430913
Mo      -2.46613985       5.99676065      10.02280157       0.31335191      -4.88935015      -2.24181581
S       -2.49768148       7.40055758      11.70141321      -0.23599230       3.18659261      -0.55112753
S       -2.41917233       7.69864938       8.32130707      -1.12760254      -0.24296308       1.36062676
Mo       4.09048285       0.61885830       9.97147954       1.38955990      -2.50044848       0.40258976
S        4.35861190       2.30845680      11.57305934      -1.92806486      -0.03771037       0.76985025
S        4.15753447       2.31161258       8.36528676       0.18508318      -0.07519603      -0.51420803
Mo       2.67567290       3.21969272       9.95749075      -1.72282090      -2.40992713       3.28975786
S        2.66446880       5.04016729      11.49351737      -0.58187638      -0.54851298      -0.02133167
S        2.48076521       4.92528228       8.51570086       0.92364773       0.33359626      -3.03572490
Mo       0.87394791       5.76673821       9.90525155      -0.41363856      -1.59820081       2.45329521
S        0.89617811       7.54098645      11.42624048      -1.23399711       0.23626227       1.42421117
S        0.91180009       7.46040764       8.48614340      -0.65028367       2.29939464      -1.53764002
Mo       7.56764559       0.26813911      10.04242509       0.96922079       3.65088961      -2.08640291
S        7.68743019       2.29587293      11.56070476      -1.63082194      -1.03999709      -0.72727921
S        7.66002988       2.24240883       8.30598277      -0.61280341      -0.51733707       2.53117213
Mo       5.70427543       3.13885747       9.95573487       4.70994526      -0.99459295       0.52223785
S        5.95678753       4.97121195      11.62995678      -0.33116169      -0.34097327      -1.84505680
S        5.77829630       4.79743125       8.44540396       2.12872789       1.32805474      -1.78687659
Mo       4.26824799       5.70848815       9.83503008      -0.53809770       2.30192563       4.25701690
S        4.28287637       7.54782496      11.54809977      -0.75414287      -0.86428044      -0.22444368
S        4.25786049       7.45338308       8.37280711      -0.92824126       1.02863487      -0.80581561
27
Lattice="9.529005647213182 0.0 0.0 -4.497967006648391 8.255025237209017 0.0 0.0 0.0 20.000001147681623" Properties=species:S:1:pos:R:3:forces:R:3 energy=-22625.178400312492 free_energy=-22625.178400312492 pbc="T T T"
Mo       0.88797850       0.39089411      10.07865585      -0.35066633      -0.33372739      -0.00555538
S        0.80942614       2.09447449      11.73595385       0.80075440       0.58293234       0.08250927
S        0.96138900       2.40977976       8.72294134       0.18057346      -2.03569690      -1.69923154
Mo      -0.68063877       3.05240351      10.15581220      -1.14892007       2.50301084      -1.03736993
S       -0.54927380       4.91344023      11.76511928       0.00710910       0.52010820      -2.13024587
S       -0.74517968       5.00548089       8.53793379       2.48760967      -1.67494953      -0.98123247
Mo      -2.12977469       5.97701352       9.94038807      -0.55116764      -2.25334155       5.31129312
S       -1.93438338       7.86413304      11.70112914      -0.76999706      -0.80375924      -1.24991661
S       -2.07447501       7.65213077       8.52795025       0.69401839       2.98275349      -1.25714423
Mo       4.13889120       0.60962576      10.12649145      -2.74250961      -6.36611159      -3.26508864
S        3.99854229       2.20476701      11.57984872       2.08912185       0.53240939       5.94995798
S        4.25661159       2.28235885       8.53980148      -2.42704322      -0.31654239      -1.57536299
Mo       2.57532717       3.11782299      10.25365127      -1.27900735      -1.17205306      -6.81728466
S        2.73039744       4.86884829      11.43218439      -0.23442470       3.86434903       4.21762348
S        2.74204189       4.98969800       8.40544536      -0.17408065      -0.48521139       0.98111677
Mo       1.13471495       5.74189674       9.98045087      -2.25089669       1.92769694       0.96937068
S        0.95862559       7.66734573      11.55265675       2.18115731      -0.66240153       1.32487995
S        1.29087248       7.76219174       8.66605223      -1.13234237      -0.34633428      -1.12670548
Mo       7.22912963       0.44860939      10.20809976       1.88105764      -0.90139457      -1.69193089
S        7.25659318       2.36727372      11.70273192       0.27011341      -2.27719470       1.44091460
S        7.27084381       2.13386359       8.23488092       0.34583292      -0.01722588       3.25897456
Mo       5.66393900       2.89726082      10.15590178       2.46890592       5.23254100      -2.02977307
S        5.81349388       4.87654297      11.61130302       0.11461052       0.84005422      -0.64313394
S        5.80485393       4.75152527       8.45485897       0.02459286       0.97194976       1.46305206
Mo       4.30801390       6.00064165      10.04367772      -0.24304227      -3.99159961      -1.35995776
S        4.33290843       7.62922590      11.63138254      -0.00880346       1.39523458       0.90019490
S        4.35201885       7.58975199       8.39977560      -0.23255628       2.28450461       0.97004586
27
Lattice="9.02742714698411 0.0 0.0 -4.3604007782548235 7.87333377823222 0.0 0.0 0.0 20.00000304875603" Properties=species:S:1:pos:R:3:forces:R:3 energy=-22625.54084900668 free_energy=-22625.54084900668 pbc="T T T"
Mo       0.66218254       0.40299338       9.95745797      -0.76872951      -0.67978682       1.05055069
S        0.62941569       2.20132999      11.56337136       3.32644493      -1.85484499       2.57714088
S        0.74721278       2.29600513       8.50908040      -1.92309389      -2.26275693      -2.77276764
Mo      -0.73454730       3.04051510      10.15438588      -2.87581385       0.71313146      -3.72172119
S       -0.82745849       4.75987797      11.67148202       1.02233078       0.87682640       0.98981532
S       -0.74933603       4.74472543       8.45696417       0.95470485      -0.03392982      -0.10734407
Mo      -2.19955339       5.64272694       9.99404252      -1.56710692      -1.70238525       1.74705586
S       -2.22995415       7.31596598      11.55827176      -1.16247236       0.63859261       2.15136954
S       -2.14958297       7.31912287       8.46725543      -0.26469224       1.36866198      -1.05926056
Mo       3.62850483       0.40844052      10.19627133      -0.46171665       1.64237339      -4.56659032
S        3.83710881       2.17751292      11.74690076      -1.64939687       0.10794597      -0.53724640
S        3.58954245       2.04346014       8.23588247       2.07204587      -0.20314852       1.35155437
Mo       2.27417861       2.91618847       9.89301297       0.93564578       3.56136997       4.73997780
S        2.18838646       4.89784414      11.46171801       3.08224773      -3.36752782       4.13627095
S        2.11914790       4.68984048       8.36921487       1.42693089       1.12028210       0.04005187
Mo       0.79970456       5.66583355      10.10379347      -4.67342557      -0.01164118      -3.49646479
S        0.74720466       7.49077218      11.58408479       2.62160400      -1.10089469       2.61363666
S        0.65818881       7.37855223       8.57836771       1.80584104       0.79030595      -1.24032510
Mo       6.82976681       0.38079583      10.00804496      -4.91662699       1.18243183       1.61806155
S        6.64905939       2.17763028      11.68253610       1.27214893      -0.75784166      -0.03439236
S        7.04452118       1.98176400       8.37174345      -2.34695773       2.17225024       0.57194730
Mo       5.24779687       2.96656512      10.05334188       0.37203966       0.30788883      -2.47272016
S        5.29096332       4.68459464      11.76411787      -0.61464535       1.00154290      -2.25605355
S        5.46802908       4.72337828       8.35805606      -2.34771003      -0.29775431       0.66221950
Mo       3.72174190       5.65117842       9.97510569       2.84764176      -0.06040216      -0.38434804
S        3.77536753       7.49253794      11.69443696       1.38975942      -1.46150965      -0.40579310
S        3.68622349       7.42406130       8.36736695       2.44300206      -1.68918032      -1.19462452
27
Lattice="9.847513175503511 0.0 0.0 -4.7754038017627956 7.7818594217571935 0.0 0.0 0.0 20.000003834052364" Properties=species:S:1:pos:R:3:forces:R:3 energy=-22623.606142471403 free_energy=-22623.606142471403 pbc="T T T"
Mo       1.13450442       0.43277752       9.88190955      -2.75552736       0.58706076       2.84382702
S        1.00971870       2.27186265      11.71496702       0.61591393      -1.08562337      -2.51169499
S        0.99505083       2.18407207       8.31364483       0.50724729      -0.71153069      -1.17903669
Mo      -0.42997788       2.99845845       9.91032455      -3.32873861       0.77751831       1.68912273
S       -0.65528208       5.02531793      11.48599559      -2.34314710      -3.35749409       1.74725512
S       -0.73041369       4.74657225       8.31975423       0.52941868      -0.20703063       0.77431806
Mo      -2.45913675       5.55372269       9.89502152       5.49893326       3.38327763      -0.93434429
S       -2.06840909       7.30769871      11.57659665      -0.69901970       0.77875167      -1.44564080
S       -2.09433365       7.39037350       8.41285852      -0.51292377      -0.68961666      -1.58509024
Mo       4.30772965       0.40322514       9.83816493       0.31394249       1.48206459       2.13215440
S        4.51549543       2.21961273      11.49554670      -2.02909070      -0.35953407      -0.35209124
S        4.51983819       2.28960491       8.29640085      -0.91714926      -0.69951052       0.65580074
Mo       2.62443415       3.00798395       9.74389863       1.94381261      -3.96362549       6.62723848
S        2.69118552       4.63829589      11.56981960      -0.55444914       0.56409566      -1.34591157
S        2.68062209       4.62906779       8.44887580      -1.69772179       4.34753747      -3.82021527
Mo       0.91253359       5.57468213      10.11068993       3.97545899      -0.02306845      -4.69269753
S        1.10825292       7.35627551      11.49809917       0.12700247       0.92570204       0.84871138
S        0.98603839       7.18345657       8.35894043       1.46998478       0.48456116       0.22144449
Mo       7.68564528       0.39148493      10.06830624      -4.35035077      -4.17986324      -2.53625083
S        7.60751806       2.10385226      11.31704969       1.16212269       3.86092714       4.45267862
S        7.58053883       1.99671722       8.54200669       0.52489097       2.78156904      -2.06015914
Mo       5.97838389       3.22257801      10.02669459      -0.02826285      -5.00970992      -4.48194934
S        5.80489533       4.96767157      11.28100385      -0.38171035       0.07514229       5.43001175
S        5.84072944       4.93135788       8.28503189       0.14499993      -1.22499516      -0.89977658
Mo       4.22952956       5.65376653       9.82939178      -0.27134703      -1.69884973       1.92748302
S        4.35171750       7.22013758      11.57330955       1.39440720       1.25163924       0.25878282
S        4.26456898       7.32876254       8.39552296       1.66130314       1.91060424      -1.76397037
27
Lattice="9.385238783247692 0.0 0.0 -4.611193059940389 8.04297131770639 0.0 0.0 0.0 20.00000015853353" Properties=species:S:1:pos:R:3:forces:R:3 energy=-22626.37761647583 free_energy=-22626.37761647583 pbc="T T T"
Mo       0.75996596       0.31087477      10.09572201      -0.60105141       2.77402285      -1.47661128
S        0.71501817       2.16553123      11.58703270       1.99416150       0.20830744       0.08940703
S        0.99570157       2.34882682       8.44525644      -0.72953690      -2.09739746      -0.76060791
Mo      -0.62315358       3.08378768       9.94015510      -2.57019865      -0.29339115       1.03642660
S       -0.80275795       4.82246792      11.63353468       0.39217062       0.54794065      -1.23157178
S       -0.65084003       4.84917738       8.48981943      -2.37355091       0.81714852      -1.43194197
Mo      -2.47103858       5.81458902      10.10350237       3.49222864      -1.90947373      -2.87642629
S       -2.23136023       7.58851084      11.47920944      -1.12949693      -0.35917848       3.94561363
S       -2.24121848       7.62053327       8.48474765      -2.78082856      -1.76074132      -2.58324108
Mo       3.74217063       0.39023823       9.92333019       5.87344272      -1.03459546       4.70862371
S        3.98218591       2.18697368      11.72466347       0.02159264       0.15397000      -1.16150151
S        4.05353625       2.11514657       8.69336180       1.12898940       2.94456207      -4.67058964
Mo       2.53909846       3.14772087       9.94492562      -3.07793676      -1.26776135       4.64423223
S        2.40738132       4.80296352      11.60542776      -1.17186460       0.79471847      -0.00898523
S        2.24449299       4.83123843       8.46985515       1.84625390       1.63812567      -1.82331169
Mo       0.77248399       5.84323183       9.91575630       0.63852987      -1.43112127       4.21874449
S        0.73298433       7.51032148      11.66464111       0.55517496       0.63474598      -1.64461694
S        0.82021544       7.53460203       8.31150928       0.20934745       0.80753825       0.82793790
Mo       7.11660695       0.33100423      10.03488126      -2.14403804       0.65602160      -1.80496790
S        7.26714900       2.03324253      11.53986155      -0.88896535       1.65097193       0.41374398
S        7.02296386       2.30368476       8.33530274       0.74388339      -0.65021322       1.77209069
Mo       5.57053058       3.17462178      10.13061163       0.72259852      -1.83555323      -1.06025738
S        5.55760335       4.87211959      11.70730171      -1.40261725       0.52260166       0.17331806
S        5.54441522       4.92749156       8.27533575      -0.93450164      -0.17337386       2.40488931
Mo       3.84077664       5.80035725      10.07254047       2.77282112      -2.34178698      -3.65571892
S        3.90650241       7.33388743      11.62911329       0.51300321       2.69752996       1.60377445
S        4.08969476       7.73209373       8.38633216      -1.09961171      -1.69361753       0.35154771
27
Lattice="9.28185660711491 0.0 0.0 -4.756320344897108 8.641909721480767 0.0 0.0 0.0 19.99999698747139" Properties=species:S:1:pos:R:3:forces:R:3 energy=-22625.5318809509 free_energy=-22625.5318809509 pbc="T T T"
Mo       0.75709227       0.44668007       9.95610459       1.28319876      -0.49174791       0.35226890
S        0.82131622       2.30061861      11.49452592      -2.56260901      -0.86469722       2.20530306
S        0.69975360       2.24840260       8.29427542       0.02902775       1.00611663       2.55914265
Mo      -0.93647436       3.38932934      10.15431864       3.23526976       0.12187672      -2.53360825
S       -0.79892467       5.21288373      11.70572435      -0.54474554       0.80997771      -1.14199635
S       -0.81560509       5.33075681       8.34633735      -0.15958529      -0.21135934       2.39840268
Mo      -2.35083067       6.23977915      10.07555466      -0.12676927       0.25463794      -0.82370766
S       -2.18066361       8.18260819      11.66368218      -2.51336878      -0.44030707      -1.08666492
S       -2.26323594       8.17920082       8.40699243      -1.03875884      -0.28184819       1.40576068
Mo       3.95733256       0.51386215      10.04346914      -1.49389038      -0.56207040      -1.20504803
S        3.93031679       2.38049363      11.47939742      -3.06177635      -1.96061271       5.22071933
S        3.98449777       2.51614147       8.56929776      -4.59226587      -2.52131838      -3.82392177
Mo       2.24442533       3.34920666      10.21884611       1.44657951       0.35724321      -5.94029268
S        2.19653652       5.20110599      11.63166349      -0.10286727       0.86582028       0.69297684
S        2.35293951       5.23109195       8.52988421      -2.44922927      -0.94531570      -0.89006449
Mo       0.70204158       6.32226330      10.04514452      -0.79015425      -2.39538754      -0.66331016
S        0.48459738       8.04055494      11.66846513       1.89380311       0.73092863       0.24285509
S        0.72650577       8.21446445       8.49641105       0.00066463      -0.40423192       0.07399044
Mo       6.88547801       0.42744992      10.18574237       0.66619700       0.86475532      -1.87952912
S        6.88968547       2.42640355      11.60353854      -0.34670503      -1.24137643       1.90547489
S        6.92600445       2.37891850       8.64813599      -0.11782080      -1.10439422      -1.22508078