LAMMPS (27 Oct 2021)
  using 64 OpenMP thread(s) per MPI task
Total wall time: 0:00:03
