
     Program PWSCF v.7.0 starts on 18Dec2023 at 20:40:28 

     This program is part of the open-source Quantum ESPRESSO suite
     for quantum simulation of materials; please cite
         "P. Giannozzi et al., J. Phys.:Condens. Matter 21 395502 (2009);
         "P. Giannozzi et al., J. Phys.:Condens. Matter 29 465901 (2017);
         "P. Giannozzi et al., J. Chem. Phys. 152 154105 (2020);
          URL http://www.quantum-espresso.org", 
     in publications or presentations arising from this work. More details at
     http://www.quantum-espresso.org/quote

     Parallel version (MPI & OpenMP), running on      32 processor cores
     Number of MPI processes:                32
     Threads/MPI process:                     1

     MPI processes distributed on     8 nodes
     R & G space division:  proc/nbgrp/npool/nimage =      32
     239826 MiB available memory on the printing compute node when the environment starts
 
     Waiting for input...
     Reading input from standard input

     Current dimensions of program PWSCF are:
     Max number of different atomic species (ntypx) = 10
     Max number of k-points (npk) =  40000
     Max angular momentum in pseudopotentials (lmaxx) =  4
     Presently no symmetry can be used with electric field


     IMPORTANT: XC functional enforced from input :
     Exchange-correlation= VDW-DF-C09
                           (   1   4  16   0   1   0   0)
     Any further DFT definition will be discarded
     Please, verify this is what you really want


     gamma-point specific algorithms are used

     Subspace diagonalization in iterative solution of the eigenvalue problem:
     a serial algorithm will be used

 
     Parallelization info
     --------------------
     sticks:   dense  smooth     PW     G-vecs:    dense   smooth      PW
     Min        2077    2077    518               210701   210701   26326
     Max        2080    2080    520               210706   210706   26332
     Sum       66499   66499  16633              6742515  6742515  842537
 
     Using Slab Decomposition
 


     bravais-lattice index     =            0
     lattice parameter (alat)  =      77.6351  a.u.
     unit-cell volume          =  197276.7112 (a.u.)^3
     number of atoms/cell      =          507
     number of atomic types    =            2
     number of electrons       =      4394.00
     number of Kohn-Sham states=         2636
     kinetic-energy cutoff     =      40.0000  Ry
     charge density cutoff     =     160.0000  Ry
     scf convergence threshold =      1.0E-08
     mixing beta               =       0.3000
     number of iterations used =            8  local-TF  mixing
     Exchange-correlation= VDW-DF-C09
                           (   1   4  16   0   1   0   0)

     GPU acceleration is ACTIVE.


     GPU used by master process:

        Device Number: 0
        Device name: NVIDIA A100-SXM4-40GB
        Compute capability : 80
        Ratio of single to double precision performance  : 2
        Memory Clock Rate (KHz): 1215000
        Memory Bus Width (bits): 5120
        Peak Memory Bandwidth (GB/s): ******

     celldm(1)=  77.635108  celldm(2)=   0.000000  celldm(3)=   0.000000
     celldm(4)=   0.000000  celldm(5)=   0.000000  celldm(6)=   0.000000

     crystal axes: (cart. coord. in units of alat)
               a(1) = (   1.000000   0.000000  -0.000000 )  
               a(2) = (  -0.500000   0.866025  -0.000000 )  
               a(3) = (  -0.000000   0.000000   0.486823 )  

     reciprocal axes: (cart. coord. in units 2 pi/alat)
               b(1) = (  1.000000  0.577350  0.000000 )  
               b(2) = ( -0.000000  1.154701 -0.000000 )  
               b(3) = (  0.000000  0.000000  2.054136 )  


     PseudoPot. # 1 for Mo read from file:
     /global/homes/j/jdgeorga/espresso/pseudo_new/Mo_ONCV_PBE-1.2.upf
     MD5 check sum: 2665c9f4159700498d9a5f7573bd8e9f
     Pseudo is Norm-conserving, Zval = 14.0
     Generated using ONCVPSP code by D. R. Hamann
     Using radial grid of  602 points,  6 beta functions with: 
                l(1) =   0
                l(2) =   0
                l(3) =   1
                l(4) =   1
                l(5) =   2
                l(6) =   2

     PseudoPot. # 2 for S  read from file:
     /global/homes/j/jdgeorga/espresso/pseudo_new/S_ONCV_PBE-1.2.upf
     MD5 check sum: f9d020296ee6110346977bfd66d424f6
     Pseudo is Norm-conserving, Zval =  6.0
     Generated using ONCVPSP code by D. R. Hamann
     Using radial grid of  602 points,  4 beta functions with: 
                l(1) =   0
                l(2) =   0
                l(3) =   1
                l(4) =   1

     atomic species   valence    mass     pseudopotential
        Mo            14.00    95.94000     Mo( 1.00)
        S              6.00    78.96000     S ( 1.00)

     No symmetry found


                                    s                        frac. trans.

      isym =  1     identity                                     

 cryst.   s( 1) = (     1          0          0      )
                  (     0          1          0      )
                  (     0          0          1      )

 cart.    s( 1) = (  1.0000000 -0.0000000  0.0000000 )
                  (  0.0000000  1.0000000  0.0000000 )
                  (  0.0000000  0.0000000  1.0000000 )


   Cartesian axes

     site n.     atom                  positions (alat units)
         1           Mo  tau(   1) = (  -0.0199907   0.0396904  -0.0804224  )
         2           S   tau(   2) = (   0.0245009   0.0373517  -0.1184892  )
         3           S   tau(   3) = (   0.0242914   0.0369572  -0.0422579  )
         4           S   tau(   4) = (  -0.0402473   0.0797202  -0.1180972  )
         5           S   tau(   5) = (  -0.0397706   0.0789988  -0.0418592  )
         6           Mo  tau(   6) = (   0.1130481   0.0322417  -0.0796225  )
         7           S   tau(   7) = (   0.1580129   0.0301393  -0.1170090  )
         8           S   tau(   8) = (   0.1567835   0.0297513  -0.0407572  )
         9           Mo  tau(   9) = (   0.0486899   0.0743608  -0.0800129  )
        10           S   tau(  10) = (   0.0934336   0.0722336  -0.1177093  )
        11           S   tau(  11) = (   0.0926650   0.0715217  -0.0414686  )
        12           Mo  tau(  12) = (  -0.0157619   0.1165190  -0.0796408  )
        13           S   tau(  13) = (   0.0287072   0.1145245  -0.1177251  )
        14           S   tau(  14) = (   0.0285773   0.1135180  -0.0414825  )
        15           Mo  tau(  15) = (  -0.0804567   0.1584660  -0.0786163  )
        16           S   tau(  16) = (  -0.0362063   0.1566983  -0.1170337  )
        17           S   tau(  17) = (  -0.0357285   0.1555035  -0.0407885  )
        18           S   tau(  18) = (  -0.1013530   0.1984256  -0.1159139  )
        19           S   tau(  19) = (  -0.1005198   0.1973158  -0.0396505  )
        20           Mo  tau(  20) = (   0.2459662   0.0260239  -0.0773179  )
        21           S   tau(  21) = (   0.2909238   0.0246325  -0.1147033  )
        22           S   tau(  22) = (   0.2896962   0.0242596  -0.0384142  )
        23           Mo  tau(  23) = (   0.1815308   0.0674086  -0.0782833  )
        24           S   tau(  24) = (   0.2264858   0.0657325  -0.1156227  )
        25           S   tau(  25) = (   0.2252073   0.0651480  -0.0393424  )
        26           Mo  tau(  26) = (   0.1171540   0.1092527  -0.0789090  )
        27           S   tau(  27) = (   0.1619982   0.1074037  -0.1163772  )
        28           S   tau(  28) = (   0.1609322   0.1065408  -0.0401136  )
        29           Mo  tau(  29) = (   0.0527049   0.1513188  -0.0789427  )
        30           S   tau(  30) = (   0.0973479   0.1494473  -0.1167047  )
        31           S   tau(  31) = (   0.0967634   0.1483406  -0.0404517  )
        32           Mo  tau(  32) = (  -0.0119606   0.1933281  -0.0783498  )
        33           S   tau(  33) = (   0.0324707   0.1915762  -0.1164456  )
        34           S   tau(  34) = (   0.0324567   0.1902793  -0.0401894  )
        35           Mo  tau(  35) = (  -0.0769900   0.2350424  -0.0773752  )
        36           S   tau(  36) = (  -0.0326755   0.2334246  -0.1157134  )
        37           S   tau(  37) = (  -0.0322379   0.2321544  -0.0394501  )
        38           Mo  tau(  38) = (  -0.1424538   0.2763477  -0.0763177  )
        39           S   tau(  39) = (  -0.0981356   0.2748186  -0.1147708  )
        40           S   tau(  40) = (  -0.0975052   0.2737530  -0.0384921  )
        41           S   tau(  41) = (  -0.1639258   0.3157457  -0.1138648  )
        42           S   tau(  42) = (  -0.1632898   0.3150176  -0.0375781  )
        43           Mo  tau(  43) = (   0.3789042   0.0217830  -0.0754145  )
        44           S   tau(  44) = (   0.4235272   0.0210245  -0.1132202  )
        45           S   tau(  45) = (   0.4230199   0.0207561  -0.0369285  )
        46           Mo  tau(  46) = (   0.3142676   0.0621860  -0.0760442  )
        47           S   tau(  47) = (   0.3590214   0.0611989  -0.1136269  )
        48           S   tau(  48) = (   0.3581882   0.0607512  -0.0373220  )
        49           Mo  tau(  49) = (   0.2497455   0.1031210  -0.0768172  )
        50           S   tau(  50) = (   0.2945649   0.1018291  -0.1142622  )
        51           S   tau(  51) = (   0.2935034   0.1011973  -0.0379521  )
        52           Mo  tau(  52) = (   0.1852976   0.1445794  -0.0774810  )
        53           S   tau(  53) = (   0.2300794   0.1430118  -0.1149466  )
        54           S   tau(  54) = (   0.2290300   0.1421911  -0.0386492  )
        55           Mo  tau(  55) = (   0.1208268   0.1864140  -0.0777937  )
        56           S   tau(  56) = (   0.1654841   0.1846738  -0.1154213  )
        57           S   tau(  57) = (   0.1647078   0.1836753  -0.0391409  )
        58           Mo  tau(  58) = (   0.0561870   0.2283528  -0.0775931  )
        59           S   tau(  59) = (   0.1006714   0.2266202  -0.1154860  )
        60           S   tau(  60) = (   0.1003488   0.2254472  -0.0392153  )
        61           Mo  tau(  61) = (  -0.0087608   0.2701249  -0.0769908  )
        62           S   tau(  62) = (   0.0356160   0.2684725  -0.1151145  )
        63           S   tau(  63) = (   0.0357115   0.2672750  -0.0388390  )
        64           Mo  tau(  64) = (  -0.0741280   0.3115453  -0.0762027  )
        65           S   tau(  65) = (  -0.0297591   0.3100101  -0.1144601  )
        66           S   tau(  66) = (  -0.0294014   0.3088982  -0.0381782  )
        67           Mo  tau(  67) = (  -0.1399164   0.3525882  -0.0754959  )
        68           S   tau(  68) = (  -0.0954677   0.3510629  -0.1137765  )
        69           S   tau(  69) = (  -0.0950638   0.3502207  -0.0374927  )
        70           Mo  tau(  70) = (  -0.2060383   0.3933208  -0.0750436  )
        71           S   tau(  71) = (  -0.1614686   0.3917336  -0.1132906  )
        72           S   tau(  72) = (  -0.1611693   0.3912562  -0.0370074  )
        73           S   tau(  73) = (  -0.2276774   0.4321682  -0.1130704  )
        74           S   tau(  74) = (  -0.2275347   0.4320637  -0.0367888  )
        75           Mo  tau(  75) = (   0.5119401   0.0188869  -0.0748713  )
        76           S   tau(  76) = (   0.5561957   0.0182509  -0.1131312  )
        77           S   tau(  77) = (   0.5564563   0.0181415  -0.0368394  )
        78           Mo  tau(  78) = (   0.4471563   0.0587438  -0.0748313  )
        79           S   tau(  79) = (   0.4915756   0.0581451  -0.1128905  )
        80           S   tau(  80) = (   0.4915069   0.0578530  -0.0365870  )
        81           Mo  tau(  81) = (   0.3824012   0.0988418  -0.0750499  )
        82           S   tau(  82) = (   0.4269515   0.0980988  -0.1129056  )
        83           S   tau(  83) = (   0.4265508   0.0976656  -0.0365845  )
        84           Mo  tau(  84) = (   0.3177179   0.1393703  -0.0755100  )
        85           S   tau(  85) = (   0.3623526   0.1383487  -0.1131776  )
        86           S   tau(  86) = (   0.3616575   0.1378028  -0.0368451  )
        87           Mo  tau(  87) = (   0.2531219   0.1804208  -0.0760825  )
        88           S   tau(  88) = (   0.2977693   0.1790721  -0.1136504  )
        89           S   tau(  89) = (   0.2969270   0.1784256  -0.0373200  )
        90           Mo  tau(  90) = (   0.1885577   0.2219395  -0.0765290  )
        91           S   tau(  91) = (   0.2331421   0.2203237  -0.1141461  )
        92           S   tau(  92) = (   0.2323767   0.2195609  -0.0378346  )
        93           Mo  tau(  93) = (   0.1239094   0.2637119  -0.0766224  )
        94           S   tau(  94) = (   0.1683621   0.2619927  -0.1144244  )
        95           S   tau(  95) = (   0.1678955   0.2611106  -0.0381335  )
        96           Mo  tau(  96) = (   0.0590462   0.3054495  -0.0763363  )
        97           S   tau(  97) = (   0.1033897   0.3037551  -0.1143389  )
        98           S   tau(  98) = (   0.1032866   0.3028221  -0.0380529  )
        99           Mo  tau(  99) = (  -0.0061637   0.3469219  -0.0758054  )
       100           S   tau( 100) = (   0.0381590   0.3453444  -0.1139469  )
       101           S   tau( 101) = (   0.0383354   0.3444104  -0.0376577  )
       102           Mo  tau( 102) = (  -0.0717783   0.3880140  -0.0752974  )
       103           S   tau( 103) = (  -0.0273576   0.3865149  -0.1134699  )
       104           S   tau( 104) = (  -0.0271228   0.3857418  -0.0371744  )
       105           Mo  tau( 105) = (  -0.1377476   0.4287797  -0.0749821  )
       106           S   tau( 106) = (  -0.0931958   0.4272667  -0.1131196  )
       107           S   tau( 107) = (  -0.0930380   0.4267334  -0.0368277  )
       108           Mo  tau( 108) = (  -0.2039409   0.4693510  -0.0749258  )
       109           S   tau( 109) = (  -0.1592453   0.4677296  -0.1130001  )
       110           S   tau( 110) = (  -0.1592540   0.4674812  -0.0367154  )
       111           Mo  tau( 111) = (  -0.2701863   0.5099187  -0.0751511  )
       112           S   tau( 112) = (  -0.2253951   0.5080838  -0.1131574  )
       113           S   tau( 113) = (  -0.2255949   0.5081598  -0.0368760  )
       114           S   tau( 114) = (  -0.2914699   0.5485143  -0.1136250  )
       115           S   tau( 115) = (  -0.2918647   0.5489695  -0.0373413  )
       116           Mo  tau( 116) = (   0.6450398   0.0158976  -0.0756941  )
       117           S   tau( 117) = (   0.6889268   0.0148113  -0.1144244  )
       118           S   tau( 118) = (   0.6899240   0.0148483  -0.0381335  )
       119           Mo  tau( 119) = (   0.5802597   0.0559507  -0.0749890  )
       120           S   tau( 120) = (   0.6243426   0.0551993  -0.1134926  )
       121           S   tau( 121) = (   0.6250227   0.0550274  -0.0371886  )
       122           Mo  tau( 122) = (   0.5153677   0.0958336  -0.0745700  )
       123           S   tau( 123) = (   0.5596243   0.0952163  -0.1128615  )
       124           S   tau( 124) = (   0.5599658   0.0949234  -0.0365420  )
       125           Mo  tau( 125) = (   0.4504291   0.1357845  -0.0744371  )
       126           S   tau( 126) = (   0.4948090   0.1351111  -0.1125356  )
       127           S   tau( 127) = (   0.4948143   0.1347401  -0.0361961  )
       128           Mo  tau( 128) = (   0.3855227   0.1760255  -0.0745858  )
       129           S   tau( 129) = (   0.4299916   0.1751410  -0.1125031  )
       130           S   tau( 130) = (   0.4296851   0.1747252  -0.0361487  )
       131           Mo  tau( 131) = (   0.3207013   0.2167208  -0.0749643  )
       132           S   tau( 132) = (   0.3652127   0.2155176  -0.1127359  )
       133           S   tau( 133) = (   0.3646595   0.2150754  -0.0363821  )
       134           Mo  tau( 134) = (   0.2559649   0.2579074  -0.0754090  )
       135           S   tau( 135) = (   0.3004493   0.2563847  -0.1131294  )
       136           S   tau( 136) = (   0.2998170   0.2559201  -0.0367951  )
       137           Mo  tau( 137) = (   0.1912464   0.2994568  -0.0756941  )
       138           S   tau( 138) = (   0.2356312   0.2977302  -0.1134926  )
       139           S   tau( 139) = (   0.2351423   0.2972271  -0.0371887  )
       140           Mo  tau( 140) = (   0.1264291   0.3411124  -0.0756634  )
       141           S   tau( 141) = (   0.1707077   0.3393498  -0.1136250  )
       142           S   tau( 142) = (   0.1705108   0.3387802  -0.0373413  )
       143           Mo  tau( 143) = (   0.0613766   0.3825937  -0.0753564  )
       144           S   tau( 144) = (   0.1056027   0.3809416  -0.1134649  )
       145           S   tau( 145) = (   0.1056819   0.3803411  -0.0371757  )
       146           Mo  tau( 146) = (  -0.0040068   0.4237216  -0.0749905  )
       147           S   tau( 147) = (   0.0402942   0.4222047  -0.1131463  )
       148           S   tau( 148) = (   0.0404716   0.4216621  -0.0368494  )
       149           Mo  tau( 149) = (  -0.0697325   0.4644768  -0.0747533  )
       150           S   tau( 150) = (  -0.0252855   0.4630423  -0.1128684  )
       151           S   tau( 151) = (  -0.0251730   0.4626126  -0.0365672  )
       152           Mo  tau( 152) = (  -0.1357056   0.5049814  -0.0747522  )
       153           S   tau( 153) = (  -0.0910741   0.5035234  -0.1127826  )
       154           S   tau( 154) = (  -0.0911401   0.5032651  -0.0364862  )
       155           Mo  tau( 155) = (  -0.2017912   0.5454141  -0.0750382  )
       156           S   tau( 156) = (  -0.1570107   0.5438082  -0.1129641  )
       157           S   tau( 157) = (  -0.1573085   0.5437671  -0.0366738  )
       158           Mo  tau( 158) = (  -0.2678041   0.5859794  -0.0756634  )
       159           S   tau( 159) = (  -0.2228978   0.5841009  -0.1134650  )
       160           S   tau( 160) = (  -0.2234575   0.5843325  -0.0371758  )
       161           Mo  tau( 161) = (  -0.3335750   0.6268617  -0.0766224  )
       162           S   tau( 162) = (  -0.2886368   0.6246107  -0.1143389  )
       163           S   tau( 163) = (  -0.2893931   0.6251665  -0.0380529  )
       164           S   tau( 164) = (  -0.3540784   0.6655323  -0.1154860  )
       165           S   tau( 165) = (  -0.3549329   0.6663982  -0.0392153  )
       166           Mo  tau( 166) = (   0.7781475   0.0114339  -0.0777937  )
       167           S   tau( 167) = (   0.8219010   0.0095839  -0.1167048  )
       168           S   tau( 168) = (   0.8231517   0.0096311  -0.0404517  )
       169           Mo  tau( 169) = (   0.7135160   0.0523278  -0.0765290  )
       170           S   tau( 170) = (   0.7573258   0.0509783  -0.1154213  )
       171           S   tau( 171) = (   0.7585787   0.0508053  -0.0391409  )
       172           Mo  tau( 172) = (   0.6486633   0.0927202  -0.0754090  )
       173           S   tau( 173) = (   0.6926232   0.0917469  -0.1141461  )
       174           S   tau( 174) = (   0.6936664   0.0914654  -0.0378346  )
       175           Mo  tau( 175) = (   0.5836162   0.1327876  -0.0746185  )
       176           S   tau( 176) = (   0.6277397   0.1320062  -0.1131294  )
       177           S   tau( 177) = (   0.6284583   0.1316909  -0.0367951  )
       178           Mo  tau( 178) = (   0.5184493   0.1727514  -0.0741764  )
       179           S   tau( 179) = (   0.5627183   0.1719909  -0.1124888  )
       180           S   tau( 180) = (   0.5630802   0.1716896  -0.0361357  )
       181           Mo  tau( 181) = (   0.4532692   0.2128576  -0.0740614  )
       182           S   tau( 182) = (   0.4976253   0.2119391  -0.1121934  )
       183           S   tau( 183) = (   0.4976518   0.2116799  -0.0358227  )
       184           Mo  tau( 184) = (   0.3881669   0.2533045  -0.0742424  )
       185           S   tau( 185) = (   0.4325734   0.2521166  -0.1122134  )
       186           S   tau( 186) = (   0.4323155   0.2519102  -0.0358413  )
       187           Mo  tau( 187) = (   0.3231878   0.2942061  -0.0746185  )
       188           S   tau( 188) = (   0.3675878   0.2927025  -0.1124889  )
       189           S   tau( 189) = (   0.3671460   0.2925398  -0.0361357  )
       190           Mo  tau( 190) = (   0.2583234   0.3355314  -0.0749890  )
       191           S   tau( 191) = (   0.3026461   0.3337694  -0.1128615  )
       192           S   tau( 192) = (   0.3022217   0.3336200  -0.0365420  )
       193           Mo  tau( 193) = (   0.1934907   0.3770796  -0.0751511  )
       194           S   tau( 194) = (   0.2377064   0.3752213  -0.1131312  )
       195           S   tau( 195) = (   0.2374814   0.3750503  -0.0368394  )
       196           Mo  tau( 196) = (   0.1285532   0.4185638  -0.0750382  )
       197           S   tau( 197) = (   0.1726841   0.4167874  -0.1131574  )
       198           S   tau( 198) = (   0.1727182   0.4165764  -0.0368760  )
       199           Mo  tau( 199) = (   0.0633971   0.4597485  -0.0747730  )
       200           S   tau( 200) = (   0.1075537   0.4581478  -0.1129641  )
       201           S   tau( 201) = (   0.1077381   0.4579105  -0.0366738  )
       202           Mo  tau( 202) = (  -0.0020443   0.5005264  -0.0745486  )
       203           S   tau( 203) = (   0.0422393   0.4991162  -0.1127189  )
       204           S   tau( 204) = (   0.0424013   0.4989010  -0.0364173  )
       205           Mo  tau( 205) = (  -0.0677240   0.5409739  -0.0745218  )
       206           S   tau( 206) = (  -0.0232535   0.5396444  -0.1125989  )
       207           S   tau( 207) = (  -0.0232646   0.5395017  -0.0362943  )
       208           Mo  tau( 208) = (  -0.1335462   0.5812486  -0.0747730  )
       209           S   tau( 209) = (  -0.0888739   0.5798879  -0.1127189  )
       210           S   tau( 210) = (  -0.0891412   0.5798552  -0.0364173  )
       211           Mo  tau( 211) = (  -0.1993540   0.6215757  -0.0753564  )
       212           S   tau( 212) = (  -0.1545086   0.6200282  -0.1131463  )
       213           S   tau( 213) = (  -0.1550673   0.6201459  -0.0368494  )
       214           Mo  tau( 214) = (  -0.2649976   0.6621661  -0.0763363  )
       215           S   tau( 215) = (  -0.2200040   0.6603074  -0.1139469  )
       216           S   tau( 216) = (  -0.2209011   0.6606218  -0.0376577  )
       217           Mo  tau( 217) = (  -0.3303357   0.7031906  -0.0775931  )
       218           S   tau( 218) = (  -0.2853055   0.7009457  -0.1151145  )
       219           S   tau( 219) = (  -0.2863904   0.7014618  -0.0388391  )
       220           Mo  tau( 220) = (  -0.3953081   0.7447232  -0.0789427  )
       221           S   tau( 221) = (  -0.3503270   0.7421179  -0.1164456  )
       222           S   tau( 222) = (  -0.3514431   0.7427784  -0.0401895  )
       223           S   tau( 223) = (  -0.4151739   0.7839030  -0.1177252  )
       224           S   tau( 224) = (  -0.4159806   0.7845187  -0.0414826  )
       225           Mo  tau( 225) = (   0.9112569   0.0049881  -0.0800129  )
       226           S   tau( 226) = (   0.9554021   0.0025443  -0.1184892  )
       227           S   tau( 227) = (   0.9558485   0.0025601  -0.0422579  )
       228           Mo  tau( 228) = (   0.8468075   0.0468338  -0.0789090  )
       229           S   tau( 229) = (   0.8907271   0.0448009  -0.1177093  )
       230           S   tau( 230) = (   0.8917280   0.0444912  -0.0414686  )
       231           Mo  tau( 231) = (   0.7821419   0.0881845  -0.0774810  )
       232           S   tau( 232) = (   0.8259866   0.0865945  -0.1163772  )
       233           S   tau( 233) = (   0.8272670   0.0861027  -0.0401136  )
       234           Mo  tau( 234) = (   0.7171901   0.1290014  -0.0760825  )
       235           S   tau( 235) = (   0.7611086   0.1277505  -0.1149466  )
       236           S   tau( 236) = (   0.7623441   0.1272520  -0.0386492  )
       237           Mo  tau( 237) = (   0.6519638   0.1693768  -0.0749643  )
       238           S   tau( 238) = (   0.6960344   0.1683415  -0.1136504  )
       239           S   tau( 239) = (   0.6970155   0.1679353  -0.0373200  )
       240           Mo  tau( 240) = (   0.5865485   0.2095119  -0.0742424  )
       241           S   tau( 241) = (   0.6307500   0.2085264  -0.1127359  )
       242           S   tau( 242) = (   0.6314096   0.2082685  -0.0363821  )
       243           Mo  tau( 243) = (   0.5210664   0.2496254  -0.0739021  )
       244           S   tau( 244) = (   0.5653740   0.2485630  -0.1122134  )
       245           S   tau( 245) = (   0.5656817   0.2484429  -0.0358413  )
       246           Mo  tau( 246) = (   0.4556472   0.2899569  -0.0739021  )
       247           S   tau( 247) = (   0.4999995   0.2886760  -0.1120510  )
       248           S   tau( 248) = (   0.4999995   0.2886761  -0.0356712  )
       249           Mo  tau( 249) = (   0.3903810   0.3306604  -0.0741764  )
       250           S   tau( 250) = (   0.4347305   0.3291006  -0.1121934  )
       251           S   tau( 251) = (   0.4344927   0.3292073  -0.0358227  )
       252           Mo  tau( 252) = (   0.3253090   0.3717880  -0.0745700  )
       253           S   tau( 253) = (   0.3696036   0.3699536  -0.1125357  )
       254           S   tau( 254) = (   0.3692796   0.3701346  -0.0361961  )
       255           Mo  tau( 255) = (   0.2603850   0.4132298  -0.0748713  )
       256           S   tau( 256) = (   0.3045658   0.4112369  -0.1128905  )
       257           S   tau( 257) = (   0.3043472   0.4114424  -0.0365870  )
       258           Mo  tau( 258) = (   0.1955006   0.4547337  -0.0749258  )
       259           S   tau( 259) = (   0.2395701   0.4527687  -0.1130704  )
       260           S   tau( 260) = (   0.2395892   0.4529446  -0.0367887  )
       261           Mo  tau( 261) = (   0.1305262   0.4960120  -0.0747522  )
       262           S   tau( 262) = (   0.1745569   0.4942519  -0.1130001  )
       263           S   tau( 263) = (   0.1747765   0.4943686  -0.0367154  )
       264           Mo  tau( 264) = (   0.0653649   0.5368896  -0.0745218  )
       265           S   tau( 265) = (   0.1094730   0.5353930  -0.1127826  )
       266           S   tau( 266) = (   0.1097297   0.5354650  -0.0364863  )
       267           Mo  tau( 267) = (  -0.0000005   0.5773512  -0.0744145  )
       268           S   tau( 268) = (   0.0442811   0.5760668  -0.1125989  )
       269           S   tau( 269) = (   0.0444102   0.5761285  -0.0362943  )
       270           Mo  tau( 270) = (  -0.0655108   0.6175335  -0.0745486  )
       271           S   tau( 271) = (  -0.0210290   0.6163423  -0.1125989  )
       272           S   tau( 272) = (  -0.0211470   0.6164232  -0.0362943  )
       273           Mo  tau( 273) = (  -0.1310444   0.6576355  -0.0749905  )
       274           S   tau( 274) = (  -0.0863523   0.6564031  -0.1128684  )
       275           S   tau( 275) = (  -0.0867808   0.6565205  -0.0365672  )
       276           Mo  tau( 276) = (  -0.1964765   0.6979033  -0.0758054  )
       277           S   tau( 277) = (  -0.1515909   0.6964613  -0.1134699  )
       278           S   tau( 278) = (  -0.1523779   0.6966445  -0.0371744  )
       279           Mo  tau( 279) = (  -0.2616861   0.7385509  -0.0769908  )
       280           S   tau( 280) = (  -0.2166454   0.7367934  -0.1144601  )
       281           S   tau( 281) = (  -0.2177871   0.7370396  -0.0381782  )
       282           Mo  tau( 282) = (  -0.3265941   0.7797205  -0.0783499  )
       283           S   tau( 283) = (  -0.2815121   0.7776119  -0.1157135  )
       284           S   tau( 284) = (  -0.2828309   0.7778680  -0.0394501  )
       285           Mo  tau( 285) = (  -0.3912121   0.8214172  -0.0796408  )
       286           S   tau( 286) = (  -0.3461936   0.8190328  -0.1170338  )
       287           S   tau( 287) = (  -0.3474672   0.8192165  -0.0407885  )
       288           Mo  tau( 288) = (  -0.4556333   0.8634936  -0.0804224  )
       289           S   tau( 289) = (  -0.4108382   0.8610215  -0.1180972  )
       290           S   tau( 290) = (  -0.4117012   0.8609693  -0.0418592  )
       291           Mo  tau( 291) = (   0.9155540   0.0817835  -0.0796224  )
       292           Mo  tau( 292) = (   0.8508572   0.1235077  -0.0782833  )
       293           S   tau( 293) = (   0.8948923   0.1217753  -0.1170090  )
       294           S   tau( 294) = (   0.8958429   0.1209046  -0.0407571  )
       295           Mo  tau( 295) = (   0.7858219   0.1647272  -0.0768171  )
       296           S   tau( 296) = (   0.8298312   0.1632780  -0.1156227  )
       297           S   tau( 297) = (   0.8309767   0.1624630  -0.0393424  )
       298           Mo  tau( 298) = (   0.7204429   0.2054684  -0.0755100  )
       299           S   tau( 299) = (   0.7645310   0.2041879  -0.1142622  )
       300           S   tau( 300) = (   0.7656090   0.2035845  -0.0379520  )
       301           Mo  tau( 301) = (   0.6547962   0.2458614  -0.0745858  )
       302           S   tau( 302) = (   0.6990103   0.2446339  -0.1131776  )
       303           S   tau( 303) = (   0.6998306   0.2443049  -0.0368451  )
       304           Mo  tau( 304) = (   0.5890254   0.2861156  -0.0740614  )
       305           S   tau( 305) = (   0.6333277   0.2848149  -0.1125031  )
       306           S   tau( 306) = (   0.6338411   0.2847574  -0.0361487  )
       307           Mo  tau( 307) = (   0.5232849   0.3264458  -0.0739022  )
       308           S   tau( 308) = (   0.5676427   0.3249884  -0.1121934  )
       309           S   tau( 309) = (   0.5678540   0.3251410  -0.0358227  )
       310           Mo  tau( 310) = (   0.4577040   0.3670549  -0.0740614  )
       311           S   tau( 311) = (   0.5020512   0.3653485  -0.1122134  )
       312           S   tau( 312) = (   0.5020013   0.3656750  -0.0358413  )
       313           Mo  tau( 313) = (   0.3923768   0.4080510  -0.0744371  )
       314           S   tau( 314) = (   0.4366793   0.4060722  -0.1125031  )
       315           S   tau( 315) = (   0.4364724   0.4065456  -0.0361487  )
       316           Mo  tau( 316) = (   0.3272940   0.4494058  -0.0748313  )
       317           S   tau( 317) = (   0.3714788   0.4472261  -0.1129056  )
       318           S   tau( 318) = (   0.3713040   0.4477898  -0.0365846  )
       319           Mo  tau( 319) = (   0.2623934   0.4909324  -0.0750436  )
       320           S   tau( 320) = (   0.3064427   0.4887288  -0.1132203  )
       321           S   tau( 321) = (   0.3064638   0.4893023  -0.0369285  )
       322           Mo  tau( 322) = (   0.1975398   0.5323445  -0.0749821  )
       323           S   tau( 323) = (   0.2414831   0.5303245  -0.1132906  )
       324           S   tau( 324) = (   0.2417469   0.5308224  -0.0370074  )
       325           Mo  tau( 325) = (   0.1326176   0.5733986  -0.0747533  )
       326           S   tau( 326) = (   0.1765741   0.5716839  -0.1131196  )
       327           S   tau( 327) = (   0.1769571   0.5720873  -0.0368277  )
       328           Mo  tau( 328) = (   0.0675536   0.6139936  -0.0745486  )
       329           S   tau( 329) = (   0.1116364   0.6126081  -0.1128684  )
       330           S   tau( 330) = (   0.1119523   0.6129205  -0.0365672  )
       331           Mo  tau( 331) = (   0.0023576   0.6541900  -0.0745218  )
       332           S   tau( 332) = (   0.0466331   0.6530494  -0.1127189  )
       333           S   tau( 333) = (   0.0467385   0.6532973  -0.0364173  )
       334           Mo  tau( 334) = (  -0.0628865   0.6941780  -0.0747533  )
       335           S   tau( 335) = (  -0.0184004   0.6931371  -0.1127826  )
       336           S   tau( 336) = (  -0.0185910   0.6933234  -0.0364863  )
       337           Mo  tau( 337) = (  -0.1280824   0.7341812  -0.0752974  )
       338           S   tau( 338) = (  -0.0833797   0.7331029  -0.1131196  )
       339           S   tau( 339) = (  -0.0839206   0.7332329  -0.0368277  )
       340           Mo  tau( 340) = (  -0.1931314   0.7744505  -0.0762027  )
       341           S   tau( 341) = (  -0.1482383   0.7731723  -0.1137765  )
       342           S   tau( 342) = (  -0.1491696   0.7732436  -0.0374927  )
       343           Mo  tau( 343) = (  -0.2579538   0.8151805  -0.0773752  )
       344           S   tau( 344) = (  -0.2129338   0.8136051  -0.1147708  )
       345           S   tau( 345) = (  -0.2141718   0.8135918  -0.0384922  )
       346           Mo  tau( 346) = (  -0.3225376   0.8564709  -0.0786163  )
       347           S   tau( 347) = (  -0.2774833   0.8545878  -0.1159139  )
       348           S   tau( 348) = (  -0.2788610   0.8544211  -0.0396505  )
       349           Mo  tau( 349) = (   0.8544797   0.2000028  -0.0773179  )
       350           Mo  tau( 350) = (   0.7890116   0.2410725  -0.0760442  )
       351           S   tau( 351) = (   0.8332058   0.2396330  -0.1147033  )
       352           S   tau( 352) = (   0.8341426   0.2387562  -0.0384142  )
       353           Mo  tau( 353) = (   0.7232000   0.2817500  -0.0750499  )
       354           S   tau( 354) = (   0.7674896   0.2803240  -0.1136268  )
       355           S   tau( 355) = (   0.7682939   0.2798263  -0.0373220  )
       356           Mo  tau( 356) = (   0.6571926   0.3221926  -0.0744371  )
       357           S   tau( 357) = (   0.7015683   0.3207032  -0.1129056  )
       358           S   tau( 358) = (   0.7021438   0.3205728  -0.0365845  )
       359           Mo  tau( 359) = (   0.5911683   0.3626163  -0.0741764  )
       360           S   tau( 360) = (   0.6355859   0.3609634  -0.1125357  )
       361           S   tau( 361) = (   0.6359046   0.3611535  -0.0361961  )
       362           Mo  tau( 362) = (   0.5252832   0.4032117  -0.0742424  )
       363           S   tau( 363) = (   0.5696924   0.4013347  -0.1124889  )
       364           S   tau( 364) = (   0.5697724   0.4017987  -0.0361357  )
       365           Mo  tau( 365) = (   0.4596797   0.4441412  -0.0745858  )
       366           S   tau( 366) = (   0.5040358   0.4419841  -0.1127359  )
       367           S   tau( 367) = (   0.5039294   0.4426843  -0.0363821  )
       368           Mo  tau( 368) = (   0.3943974   0.4854363  -0.0750499  )
       369           S   tau( 369) = (   0.4386357   0.4830455  -0.1131776  )
       370           S   tau( 370) = (   0.4385105   0.4839204  -0.0368451  )
       371           Mo  tau( 371) = (   0.3294110   0.5269942  -0.0754145  )
       372           S   tau( 372) = (   0.3734876   0.5245052  -0.1136269  )
       373           S   tau( 373) = (   0.3735165   0.5254507  -0.0373220  )
       374           Mo  tau( 374) = (   0.2646079   0.5685620  -0.0754960  )
       375           S   tau( 375) = (   0.3085192   0.5661905  -0.1138648  )
       376           S   tau( 376) = (   0.3088317   0.5671053  -0.0375781  )
       377           Mo  tau( 377) = (   0.1998592   0.6098584  -0.0752974  )
       378           S   tau( 378) = (   0.2437045   0.6078183  -0.1137765  )
       379           S   tau( 379) = (   0.2442319   0.6085892  -0.0374927  )
       380           Mo  tau( 380) = (   0.1350498   0.6506964  -0.0749905  )
       381           S   tau( 381) = (   0.1789471   0.6490773  -0.1134699  )
       382           S   tau( 382) = (   0.1794993   0.6496672  -0.0371744  )
       383           Mo  tau( 383) = (   0.0701476   0.6910564  -0.0747730  )
       384           S   tau( 384) = (   0.1142130   0.6898206  -0.1131463  )
       385           S   tau( 385) = (   0.1145942   0.6902456  -0.0368494  )
       386           Mo  tau( 386) = (   0.0051780   0.7310602  -0.0747522  )
       387           S   tau( 387) = (   0.0494556   0.7300975  -0.1129641  )
       388           S   tau( 388) = (   0.0495689   0.7303759  -0.0366738  )
       389           Mo  tau( 389) = (  -0.0597936   0.7709294  -0.0749821  )
       390           S   tau( 390) = (  -0.0153131   0.7700720  -0.1130001  )
       391           S   tau( 391) = (  -0.0155239   0.7702038  -0.0367154  )
       392           Mo  tau( 392) = (  -0.1246930   0.8109034  -0.0754960  )
       393           S   tau( 393) = (  -0.0800160   0.8099954  -0.1132906  )
       394           S   tau( 394) = (  -0.0805790   0.8099749  -0.0370074  )
       395           Mo  tau( 395) = (  -0.1894505   0.8512212  -0.0763177  )
       396           S   tau( 396) = (  -0.1445948   0.8501174  -0.1138648  )
       397           S   tau( 397) = (  -0.1455433   0.8499307  -0.0375781  )
       398           Mo  tau( 398) = (   0.7916834   0.3172509  -0.0754145  )
       399           Mo  tau( 399) = (   0.7255483   0.3578785  -0.0748313  )
       400           S   tau( 400) = (   0.7700287   0.3562748  -0.1132202  )
       401           S   tau( 401) = (   0.7705148   0.3559697  -0.0369285  )
       402           Mo  tau( 402) = (   0.6593218   0.3984065  -0.0745700  )
       403           S   tau( 403) = (   0.7038572   0.3966462  -0.1128905  )
       404           S   tau( 404) = (   0.7041444   0.3967328  -0.0365870  )
       405           Mo  tau( 405) = (   0.5931945   0.4390345  -0.0746185  )
       406           S   tau( 406) = (   0.6377282   0.4370425  -0.1128615  )
       407           S   tau( 407) = (   0.6378110   0.4374847  -0.0365420  )
       408           Mo  tau( 408) = (   0.5273335   0.4799305  -0.0749643  )
       409           S   tau( 409) = (   0.5718095   0.4776372  -0.1131295  )
       410           S   tau( 410) = (   0.5717232   0.4784172  -0.0367951  )
       411           Mo  tau( 411) = (   0.4618378   0.5211894  -0.0755100  )
       412           S   tau( 412) = (   0.5061948   0.5186145  -0.1136504  )
       413           S   tau( 413) = (   0.5060561   0.5196673  -0.0373200  )
       414           Mo  tau( 414) = (   0.3967193   0.5627696  -0.0760442  )
       415           S   tau( 415) = (   0.4409026   0.5600111  -0.1142622  )
       416           S   tau( 416) = (   0.4408862   0.5612464  -0.0379521  )
       417           Mo  tau( 417) = (   0.3319029   0.6044847  -0.0763177  )
       418           S   tau( 418) = (   0.3758689   0.6017627  -0.1147034  )
       419           S   tau( 419) = (   0.3761599   0.6030123  -0.0384142  )
       420           Mo  tau( 420) = (   0.2672580   0.6460578  -0.0762027  )
       421           S   tau( 421) = (   0.3110680   0.6436300  -0.1147708  )
       422           S   tau( 422) = (   0.3116756   0.6447087  -0.0384922  )
       423           Mo  tau( 423) = (   0.2026388   0.6872283  -0.0758054  )
       424           S   tau( 424) = (   0.2464030   0.6852501  -0.1144601  )
       425           S   tau( 425) = (   0.2471870   0.6861157  -0.0381782  )
       426           Mo  tau( 426) = (   0.1379759   0.7278841  -0.0753564  )
       427           S   tau( 427) = (   0.1818435   0.7264017  -0.1139469  )
       428           S   tau( 428) = (   0.1825643   0.7270214  -0.0376577  )
       429           Mo  tau( 429) = (   0.0732366   0.7680756  -0.0750382  )
       430           S   tau( 430) = (   0.1172936   0.7670111  -0.1134650  )
       431           S   tau( 431) = (   0.1177741   0.7673799  -0.0371758  )
       432           Mo  tau( 432) = (   0.0084388   0.8079688  -0.0749258  )
       433           S   tau( 433) = (   0.0527095   0.8071823  -0.1131574  )
       434           S   tau( 434) = (   0.0528753   0.8073173  -0.0368760  )
       435           Mo  tau( 435) = (  -0.0563566   0.8478003  -0.0750436  )
       436           S   tau( 436) = (  -0.0118942   0.8471166  -0.1130704  )
       437           S   tau( 437) = (  -0.0120560   0.8470453  -0.0367887  )
       438           Mo  tau( 438) = (   0.7276735   0.4339114  -0.0748713  )
       439           Mo  tau( 439) = (   0.6614155   0.4745461  -0.0749890  )
       440           S   tau( 440) = (   0.7060964   0.4725559  -0.1131312  )
       441           S   tau( 441) = (   0.7060609   0.4728363  -0.0368394  )
       442           Mo  tau( 442) = (   0.5953704   0.5154006  -0.0754090  )
       443           S   tau( 443) = (   0.6400248   0.5130986  -0.1134927  )
       444           S   tau( 444) = (   0.6398336   0.5137736  -0.0371887  )
       445           Mo  tau( 445) = (   0.5296865   0.5566060  -0.0760826  )
       446           S   tau( 446) = (   0.5742333   0.5539576  -0.1141462  )
       447           S   tau( 447) = (   0.5739555   0.5550018  -0.0378346  )
       448           Mo  tau( 448) = (   0.4644312   0.5981799  -0.0768172  )
       449           S   tau( 449) = (   0.5088107   0.5952659  -0.1149466  )
       450           S   tau( 450) = (   0.5086246   0.5965851  -0.0386493  )
       451           Mo  tau( 451) = (   0.3995527   0.6400015  -0.0773179  )
       452           S   tau( 452) = (   0.4436816   0.6370177  -0.1156227  )
       453           S   tau( 453) = (   0.4438147   0.6384170  -0.0393424  )
       454           Mo  tau( 454) = (   0.3349424   0.6818307  -0.0773752  )
       455           S   tau( 455) = (   0.3788349   0.6790401  -0.1159140  )
       456           S   tau( 456) = (   0.3793795   0.6803166  -0.0396505  )
       457           Mo  tau( 457) = (   0.2704454   0.7233777  -0.0769908  )
       458           S   tau( 458) = (   0.3141862   0.7210171  -0.1157135  )
       459           S   tau( 459) = (   0.3150674   0.7220311  -0.0394501  )
       460           Mo  tau( 460) = (   0.2059500   0.7644380  -0.0763363  )
       461           S   tau( 461) = (   0.2496881   0.7626353  -0.1151145  )
       462           S   tau( 462) = (   0.2506774   0.7633168  -0.0388391  )
       463           Mo  tau( 463) = (   0.1413736   0.8049618  -0.0756634  )
       464           S   tau( 464) = (   0.1852456   0.8036878  -0.1143389  )
       465           S   tau( 465) = (   0.1861051   0.8040649  -0.0380529  )
       466           Mo  tau( 466) = (   0.0766942   0.8450552  -0.0751511  )
       467           S   tau( 467) = (   0.1207607   0.8441895  -0.1136250  )
       468           S   tau( 468) = (   0.1213524   0.8443038  -0.0373413  )
       469           Mo  tau( 469) = (   0.6637124   0.5506738  -0.0756941  )
       470           Mo  tau( 470) = (   0.5979249   0.5917608  -0.0765290  )
       471           S   tau( 471) = (   0.6427097   0.5892242  -0.1144244  )
       472           S   tau( 472) = (   0.6421791   0.5900693  -0.0381335  )
       473           Mo  tau( 473) = (   0.5325591   0.6332642  -0.0774810  )
       474           S   tau( 474) = (   0.5771887   0.6303760  -0.1154213  )
       475           S   tau( 475) = (   0.5767121   0.6315475  -0.0391409  )
       476           Mo  tau( 476) = (   0.4676106   0.6751118  -0.0782833  )
       477           S   tau( 477) = (   0.5120137   0.6720300  -0.1163772  )
       478           S   tau( 478) = (   0.5117995   0.6733846  -0.0401136  )
       479           Mo  tau( 479) = (   0.4029929   0.7171167  -0.0786163  )
       480           S   tau( 480) = (   0.4470935   0.7141136  -0.1170090  )
       481           S   tau( 481) = (   0.4473722   0.7153722  -0.0407572  )
       482           Mo  tau( 482) = (   0.3385533   0.7590049  -0.0783499  )
       483           S   tau( 483) = (   0.3823985   0.7563225  -0.1170338  )
       484           S   tau( 484) = (   0.3831944   0.7573336  -0.0407885  )
       485           Mo  tau( 485) = (   0.2741473   0.8005102  -0.0775931  )
       486           S   tau( 486) = (   0.3178549   0.7983595  -0.1164456  )
       487           S   tau( 487) = (   0.3189850   0.7989959  -0.0401895  )
       488           Mo  tau( 488) = (   0.2096642   0.8414799  -0.0766224  )
       489           S   tau( 489) = (   0.2534056   0.8399011  -0.1154860  )
       490           S   tau( 490) = (   0.2545827   0.8402082  -0.0392153  )
       491           Mo  tau( 491) = (   0.6010243   0.6681803  -0.0777938  )
       492           Mo  tau( 492) = (   0.5360371   0.7099417  -0.0789091  )
       493           S   tau( 493) = (   0.5807497   0.7069970  -0.1167048  )
       494           S   tau( 494) = (   0.5800835   0.7080565  -0.0404518  )
       495           Mo  tau( 495) = (   0.4713965   0.7520030  -0.0796225  )
       496           S   tau( 496) = (   0.5158378   0.7489937  -0.1177093  )
       497           S   tau( 497) = (   0.5156055   0.7500153  -0.0414686  )
       498           Mo  tau( 498) = (   0.4069727   0.7941175  -0.0796408  )
       499           S   tau( 499) = (   0.4510841   0.7913119  -0.1180972  )
       500           S   tau( 500) = (   0.4514704   0.7920854  -0.0418592  )
       501           Mo  tau( 501) = (   0.3426017   0.8360116  -0.0789427  )
       502           S   tau( 502) = (   0.3864654   0.8336261  -0.1177252  )
       503           S   tau( 503) = (   0.3874020   0.8340168  -0.0414826  )
       504           Mo  tau( 504) = (   0.5400519   0.7866793  -0.0800129  )
       505           Mo  tau( 505) = (   0.4756226   0.8288696  -0.0804224  )
       506           S   tau( 506) = (   0.5200956   0.8261322  -0.1184893  )
       507           S   tau( 507) = (   0.5198587   0.8265109  -0.0422579  )

   Crystallographic axes

     site n.     atom                  positions (cryst. coord.)
         1           Mo  tau(   1) = (  0.0029246  0.0458305 -0.1651986  )
         2           S   tau(   2) = (  0.0460659  0.0431300 -0.2433931  )
         3           S   tau(   3) = (  0.0456286  0.0426745 -0.0868035  )
         4           S   tau(   4) = (  0.0057791  0.0920529 -0.2425878  )
         5           S   tau(   5) = (  0.0058394  0.0912200 -0.0859844  )
         6           Mo  tau(   6) = (  0.1316628  0.0372295 -0.1635554  )
         7           S   tau(   7) = (  0.1754138  0.0348019 -0.2403525  )
         8           S   tau(   8) = (  0.1739604  0.0343539 -0.0837208  )
         9           Mo  tau(   9) = (  0.0916221  0.0858644 -0.1643573  )
        10           S   tau(  10) = (  0.1351377  0.0834082 -0.2417910  )
        11           S   tau(  11) = (  0.1339581  0.0825861 -0.0851822  )
        12           Mo  tau(  12) = (  0.0515103  0.1345445 -0.1635930  )
        13           S   tau(  13) = (  0.0948280  0.1322415 -0.2418235  )
        14           S   tau(  14) = (  0.0941169  0.1310793 -0.0852108  )
        15           Mo  tau(  15) = (  0.0110337  0.1829807 -0.1614886  )
        16           S   tau(  16) = (  0.0542635  0.1809396 -0.2404033  )
        17           S   tau(  17) = (  0.0540515  0.1795600 -0.0837851  )
        18           S   tau(  18) = (  0.0132081  0.2291222 -0.2381030  )
        19           S   tau(  19) = (  0.0134006  0.2278407 -0.0814475  )
        20           Mo  tau(  20) = (  0.2609911  0.0300498 -0.1588215  )
        21           S   tau(  21) = (  0.3051454  0.0284431 -0.2356163  )
        22           S   tau(  22) = (  0.3037025  0.0280126 -0.0789081  )
        23           Mo  tau(  23) = (  0.2204491  0.0778367 -0.1608046  )
        24           S   tau(  24) = (  0.2644365  0.0759014 -0.2375048  )
        25           S   tau(  25) = (  0.2628205  0.0752264 -0.0808147  )
        26           Mo  tau(  26) = (  0.1802311  0.1261541 -0.1620899  )
        27           S   tau(  27) = (  0.2240078  0.1240191 -0.2390546  )
        28           S   tau(  28) = (  0.2224436  0.1230228 -0.0823988  )
        29           Mo  tau(  29) = (  0.1400689  0.1747279 -0.1621590  )
        30           S   tau(  30) = (  0.1836313  0.1725669 -0.2397275  )
        31           S   tau(  31) = (  0.1824079  0.1712889 -0.0830934  )
        32           Mo  tau(  32) = (  0.0996575  0.2232361 -0.1609413  )
        33           S   tau(  33) = (  0.1430772  0.2212131 -0.2391952  )
        34           S   tau(  34) = (  0.1423146  0.2197156 -0.0825546  )
        35           Mo  tau(  35) = (  0.0587118  0.2714036 -0.1589393  )
        36           S   tau(  36) = (  0.1020923  0.2695355 -0.2376912  )
        37           S   tau(  37) = (  0.1017965  0.2680688 -0.0810358  )
        38           Mo  tau(  38) = (  0.0170956  0.3190988 -0.1567669  )
        39           S   tau(  39) = (  0.0605309  0.3173331 -0.2357549  )
        40           S   tau(  40) = (  0.0605462  0.3161027 -0.0790681  )
        41           S   tau(  41) = (  0.0183701  0.3645917 -0.2338938  )
        42           S   tau(  42) = (  0.0185857  0.3637510 -0.0771905  )
        43           Mo  tau(  43) = (  0.3914806  0.0251528 -0.1549117  )
        44           S   tau(  44) = (  0.4356657  0.0242770 -0.2325698  )
        45           S   tau(  45) = (  0.4350035  0.0239671 -0.0758561  )
        46           Mo  tau(  46) = (  0.3501708  0.0718062 -0.1562051  )
        47           S   tau(  47) = (  0.3943546  0.0706664 -0.2334051  )
        48           S   tau(  48) = (  0.3932629  0.0701494 -0.0766645  )
        49           Mo  tau(  49) = (  0.3092824  0.1190739 -0.1577930  )
        50           S   tau(  50) = (  0.3533560  0.1175822 -0.2347101  )
        51           S   tau(  51) = (  0.3519296  0.1168526 -0.0779587  )
        52           Mo  tau(  52) = (  0.2687706  0.1669459 -0.1591565  )
        53           S   tau(  53) = (  0.3126473  0.1651358 -0.2361160  )
        54           S   tau(  54) = (  0.3111240  0.1641881 -0.0793908  )
        55           Mo  tau(  55) = (  0.2284530  0.2152523 -0.1597990  )
        56           S   tau(  56) = (  0.2721056  0.2132430 -0.2370911  )
        57           S   tau(  57) = (  0.2707528  0.2120900 -0.0804007  )
        58           Mo  tau(  58) = (  0.1880266  0.2636791 -0.1593869  )
        59           S   tau(  59) = (  0.2315106  0.2616784 -0.2372239  )
        60           S   tau(  60) = (  0.2305108  0.2603240 -0.0805535  )
        61           Mo  tau(  61) = (  0.1471959  0.3119134 -0.1581495  )
        62           S   tau(  62) = (  0.1906187  0.3100054 -0.2364609  )
        63           S   tau(  63) = (  0.1900228  0.3086225 -0.0797807  )
        64           Mo  tau(  64) = (  0.1057427  0.3597415 -0.1565307  )
        65           S   tau(  65) = (  0.1492253  0.3579688 -0.2351166  )
        66           S   tau(  66) = (  0.1489411  0.3566850 -0.0784233  )
        67           Mo  tau(  67) = (  0.0636505  0.4071338 -0.1550790  )
        68           S   tau(  68) = (  0.1072186  0.4053725 -0.2337124  )
        69           S   tau(  69) = (  0.1071362  0.4044000 -0.0770151  )
        70           Mo  tau(  70) = (  0.0210456  0.4541677 -0.1541497  )
        71           S   tau(  71) = (  0.0646989  0.4523349 -0.2327144  )
        72           S   tau(  72) = (  0.0647226  0.4517838 -0.0760182  )
        73           S   tau(  73) = (  0.0218350  0.4990248 -0.2322621  )
        74           S   tau(  74) = (  0.0219174  0.4989042 -0.0755691  )
        75           Mo  tau(  75) = (  0.5228444  0.0218087 -0.1537958  )
        76           S   tau(  76) = (  0.5667329  0.0210744 -0.2323868  )
        77           S   tau(  77) = (  0.5669303  0.0209480 -0.0756732  )
        78           Mo  tau(  78) = (  0.4810720  0.0678315 -0.1537138  )
        79           S   tau(  79) = (  0.5251456  0.0671402 -0.2318926  )
        80           S   tau(  80) = (  0.5249084  0.0668029 -0.0751546  )
        81           Mo  tau(  81) = (  0.4394675  0.1141327 -0.1541627  )
        82           S   tau(  82) = (  0.4835889  0.1132747 -0.2319236  )
        83           S   tau(  83) = (  0.4829380  0.1127745 -0.0751496  )
        84           Mo  tau(  84) = (  0.3981834  0.1609310 -0.1551079  )
        85           S   tau(  85) = (  0.4422282  0.1597513 -0.2324823  )
        86           S   tau(  86) = (  0.4412179  0.1591210 -0.0756848  )
        87           Mo  tau(  87) = (  0.3572879  0.2083320 -0.1562839  )
        88           S   tau(  88) = (  0.4011567  0.2067747 -0.2334534  )
        89           S   tau(  89) = (  0.3999410  0.2060281 -0.0766604  )
        90           Mo  tau(  90) = (  0.3166946  0.2562737 -0.1572010  )
        91           S   tau(  91) = (  0.3603460  0.2544079 -0.2344717  )
        92           S   tau(  92) = (  0.3591403  0.2535271 -0.0777174  )
        93           Mo  tau(  93) = (  0.2761635  0.3045083 -0.1573929  )
        94           S   tau(  94) = (  0.3196236  0.3025231 -0.2350433  )
        95           S   tau(  95) = (  0.3186478  0.3015045 -0.0783314  )
        96           Mo  tau(  96) = (  0.2353976  0.3527027 -0.1568052  )
        97           S   tau(  97) = (  0.2787628  0.3507461 -0.2348677  )
        98           S   tau(  98) = (  0.2781210  0.3496689 -0.0781658  )
        99           Mo  tau(  99) = (  0.1941317  0.4005909 -0.1557147  )
       100           S   tau( 100) = (  0.2375437  0.3987694 -0.2340625  )
       101           S   tau( 101) = (  0.2371808  0.3976908 -0.0773541  )
       102           Mo  tau( 102) = (  0.1522417  0.4480400 -0.1546711  )
       103           S   tau( 103) = (  0.1957969  0.4463090 -0.2330826  )
       104           S   tau( 104) = (  0.1955853  0.4454163 -0.0763613  )
       105           Mo  tau( 105) = (  0.1098085  0.4951121 -0.1540235  )
       106           S   tau( 106) = (  0.1534867  0.4933651 -0.2323632  )
       107           S   tau( 107) = (  0.1533367  0.4927493 -0.0756491  )
       108           Mo  tau( 108) = (  0.0670390  0.5419599 -0.1539079  )
       109           S   tau( 109) = (  0.1107985  0.5400877 -0.2321176  )
       110           S   tau( 110) = (  0.1106464  0.5398007 -0.0754184  )
       111           Mo  tau( 111) = (  0.0242154  0.5888034 -0.1543706  )
       112           S   tau( 112) = (  0.0679472  0.5866846 -0.2324408  )
       113           S   tau( 113) = (  0.0677913  0.5867724 -0.0757483  )
       114           S   tau( 114) = (  0.0252150  0.6333697 -0.2334012  )
       115           S   tau( 115) = (  0.0250830  0.6338954 -0.0767041  )
       116           Mo  tau( 116) = (  0.6542182  0.0183570 -0.1554859  )
       117           S   tau( 117) = (  0.6974781  0.0171026 -0.2350433  )
       118           S   tau( 118) = (  0.6984966  0.0171453 -0.0783314  )
       119           Mo  tau( 119) = (  0.6125628  0.0646063 -0.1540376  )
       120           S   tau( 120) = (  0.6562119  0.0637387 -0.2331294  )
       121           S   tau( 121) = (  0.6567928  0.0635401 -0.0763905  )
       122           Mo  tau( 122) = (  0.5706973  0.1106591 -0.1531770  )
       123           S   tau( 123) = (  0.6145974  0.1099463 -0.2318329  )
       124           S   tau( 124) = (  0.6147699  0.1096081 -0.0750622  )
       125           Mo  tau( 125) = (  0.5288244  0.1567905 -0.1529040  )
       126           S   tau( 126) = (  0.5728155  0.1560129 -0.2311636  )
       127           S   tau( 127) = (  0.5726065  0.1555844 -0.0743518  )
       128           Mo  tau( 128) = (  0.4871510  0.2032567 -0.1532094  )
       129           S   tau( 129) = (  0.5311093  0.2022355 -0.2310967  )
       130           S   tau( 130) = (  0.5305627  0.2017553 -0.0742544  )
       131           Mo  tau( 131) = (  0.4458250  0.2502476 -0.1539868  )
       132           S   tau( 132) = (  0.4896418  0.2488583 -0.2315749  )
       133           S   tau( 133) = (  0.4888333  0.2483476 -0.0747338  )
       134           Mo  tau( 134) = (  0.4048678  0.2978058 -0.1549004  )
       135           S   tau( 135) = (  0.4484731  0.2960476 -0.2323833  )
       136           S   tau( 136) = (  0.4475725  0.2955110 -0.0755822  )
       137           Mo  tau( 137) = (  0.3641378  0.3457829 -0.1554859  )
       138           S   tau( 138) = (  0.4075258  0.3437892 -0.2331294  )
       139           S   tau( 139) = (  0.4067464  0.3432083 -0.0763906  )
       140           Mo  tau( 140) = (  0.3233704  0.3938826 -0.1554229  )
       141           S   tau( 141) = (  0.3666314  0.3918474 -0.2334012  )
       142           S   tau( 142) = (  0.3661057  0.3911896 -0.0767040  )
       143           Mo  tau( 143) = (  0.2822672  0.4417812 -0.1547924  )
       144           S   tau( 144) = (  0.3255395  0.4398734 -0.2330725  )
       145           S   tau( 145) = (  0.3252720  0.4391801 -0.0763641  )
       146           Mo  tau( 146) = (  0.2406290  0.4892716 -0.1540407  )
       147           S   tau( 147) = (  0.2840542  0.4875200 -0.2324179  )
       148           S   tau( 148) = (  0.2839183  0.4868934 -0.0756937  )
       149           Mo  tau( 149) = (  0.1984333  0.5363317 -0.1535534  )
       150           S   tau( 150) = (  0.2420520  0.5346752 -0.2318471  )
       151           S   tau( 151) = (  0.2419165  0.5341790 -0.0751141  )
       152           Mo  tau( 152) = (  0.1558455  0.5831023 -0.1535513  )
       153           S   tau( 153) = (  0.1996353  0.5814188 -0.2316709  )
       154           S   tau( 154) = (  0.1994202  0.5811205 -0.0749477  )
       155           Mo  tau( 155) = (  0.1131037  0.6297900 -0.1541388  )
       156           S   tau( 156) = (  0.1569571  0.6279356 -0.2320437  )
       157           S   tau( 157) = (  0.1566356  0.6278882 -0.0753329  )
       158           Mo  tau( 158) = (  0.0705113  0.6766307 -0.1554230  )
       159           S   tau( 159) = (  0.1143330  0.6744616 -0.2330725  )
       160           S   tau( 160) = (  0.1139071  0.6747291 -0.0763641  )
       161           Mo  tau( 161) = (  0.0283438  0.7238376 -0.1573929  )
       162           S   tau( 162) = (  0.0719824  0.7212383 -0.2348677  )
       163           S   tau( 163) = (  0.0715469  0.7218801 -0.0781659  )
       164           S   tau( 164) = (  0.0301669  0.7684905 -0.2372240  )
       165           S   tau( 165) = (  0.0298123  0.7694904 -0.0805536  )
       166           Mo  tau( 166) = (  0.7847488  0.0132027 -0.1597990  )
       167           S   tau( 167) = (  0.8274343  0.0110665 -0.2397275  )
       168           S   tau( 168) = (  0.8287122  0.0111210 -0.0830934  )
       169           Mo  tau( 169) = (  0.7437274  0.0604230 -0.1572010  )
       170           S   tau( 170) = (  0.7867582  0.0588647 -0.2370911  )
       171           S   tau( 171) = (  0.7879111  0.0586649 -0.0804007  )
       172           Mo  tau( 172) = (  0.7021953  0.1070640 -0.1549004  )
       173           S   tau( 173) = (  0.7455932  0.1059402 -0.2344717  )
       174           S   tau( 174) = (  0.7464740  0.1056152 -0.0777174  )
       175           Mo  tau( 175) = (  0.6602812  0.1533299 -0.1532766  )
       176           S   tau( 176) = (  0.7039535  0.1524276 -0.2323833  )
       177           S   tau( 177) = (  0.7044901  0.1520635 -0.0755821  )
       178           Mo  tau( 178) = (  0.6181874  0.1994762 -0.1523684  )
       179           S   tau( 179) = (  0.6620174  0.1985980 -0.2310674  )
       180           S   tau( 180) = (  0.6622052  0.1982501 -0.0742277  )
       181           Mo  tau( 181) = (  0.5761626  0.2457868 -0.1521322  )
       182           S   tau( 182) = (  0.6199884  0.2447262 -0.2304605  )
       183           S   tau( 183) = (  0.6198653  0.2444269 -0.0735848  )
       184           Mo  tau( 184) = (  0.5344123  0.2924909 -0.1525041  )
       185           S   tau( 185) = (  0.5781330  0.2911192 -0.2305016  )
       186           S   tau( 186) = (  0.5777559  0.2908808 -0.0736229  )
       187           Mo  tau( 187) = (  0.4930478  0.3397199 -0.1532767  )
       188           S   tau( 188) = (  0.5365797  0.3379837 -0.2310675  )
       189           S   tau( 189) = (  0.5360439  0.3377959 -0.0742277  )
       190           Mo  tau( 190) = (  0.4520425  0.3874383 -0.1540377  )
       191           S   tau( 191) = (  0.4953479  0.3854037 -0.2318330  )
       192           S   tau( 192) = (  0.4948373  0.3852312 -0.0750622  )
       193           Mo  tau( 193) = (  0.4111977  0.4354141 -0.1543706  )
       194           S   tau( 194) = (  0.4543405  0.4332682 -0.2323868  )
       195           S   tau( 195) = (  0.4540168  0.4330708 -0.0756732  )
       196           Mo  tau( 196) = (  0.3702111  0.4833158 -0.1541387  )
       197           S   tau( 197) = (  0.4133165  0.4812647 -0.2324408  )
       198           S   tau( 198) = (  0.4132287  0.4810210 -0.0757482  )
       199           Mo  tau( 199) = (  0.3288331  0.5308719 -0.1535939  )
       200           S   tau( 200) = (  0.3720655  0.5290236 -0.2320437  )
       201           S   tau( 201) = (  0.3721129  0.5287495 -0.0753329  )
       202           Mo  tau( 202) = (  0.2869348  0.5779582 -0.1531331  )
       203           S   tau( 203) = (  0.3304042  0.5763298 -0.2315401  )
       204           S   tau( 204) = (  0.3304419  0.5760813 -0.0748060  )
       205           Mo  tau( 205) = (  0.2446075  0.6246629 -0.1530780  )
       206           S   tau( 206) = (  0.2883103  0.6231277 -0.2312935  )
       207           S   tau( 207) = (  0.2882168  0.6229630 -0.0745534  )
       208           Mo  tau( 208) = (  0.2020378  0.6711680 -0.1535939  )
       209           S   tau( 209) = (  0.2459246  0.6695969 -0.2315401  )
       210           S   tau( 210) = (  0.2456383  0.6695591 -0.0748060  )
       211           Mo  tau( 211) = (  0.1595130  0.7177338 -0.1547924  )
       212           S   tau( 212) = (  0.2034649  0.7159469 -0.2324180  )
       213           S   tau( 213) = (  0.2029741  0.7160828 -0.0756937  )
       214           Mo  tau( 214) = (  0.1173041  0.7646035 -0.1568053  )
       215           S   tau( 215) = (  0.1612247  0.7624574 -0.2340625  )
       216           S   tau( 216) = (  0.1605091  0.7628203 -0.0773541  )
       217           Mo  tau( 217) = (  0.0756516  0.8119745 -0.1593869  )
       218           S   tau( 218) = (  0.1193857  0.8093824 -0.2364609  )
       219           S   tau( 219) = (  0.1185988  0.8099783 -0.0797808  )
       220           Mo  tau( 220) = (  0.0346581  0.8599323 -0.1621591  )
       221           S   tau( 221) = (  0.0781350  0.8569239 -0.2391953  )
       222           S   tau( 222) = (  0.0774002  0.8576866 -0.0825547  )
       223           S   tau( 223) = (  0.0374127  0.9051732 -0.2418236  )
       224           S   tau( 224) = (  0.0369615  0.9058842 -0.0852109  )
       225           Mo  tau( 225) = (  0.9141367  0.0057597 -0.1643573  )
       226           S   tau( 226) = (  0.9568711  0.0029379 -0.2433931  )
       227           S   tau( 227) = (  0.9573266  0.0029562 -0.0868035  )
       228           Mo  tau( 228) = (  0.8738470  0.0540790 -0.1620899  )
       229           S   tau( 229) = (  0.9165930  0.0517316 -0.2417910  )
       230           S   tau( 230) = (  0.9174151  0.0513741 -0.0851822  )
       231           Mo  tau( 231) = (  0.8330552  0.1018267 -0.1591565  )
       232           S   tau( 232) = (  0.8759820  0.0999907 -0.2390546  )
       233           S   tau( 233) = (  0.8769784  0.0994228 -0.0823988  )
       234           Mo  tau( 234) = (  0.7916691  0.1489580 -0.1562839  )
       235           S   tau( 235) = (  0.8348653  0.1475135 -0.2361160  )
       236           S   tau( 236) = (  0.8358130  0.1469379 -0.0793908  )
       237           Mo  tau( 237) = (  0.7497535  0.1955795 -0.1539868  )
       238           S   tau( 238) = (  0.7932264  0.1943840 -0.2334533  )
       239           S   tau( 239) = (  0.7939730  0.1939149 -0.0766604  )
       240           Mo  tau( 240) = (  0.7075102  0.2419235 -0.1525041  )
       241           S   tau( 241) = (  0.7511428  0.2407856 -0.2315748  )
       242           S   tau( 242) = (  0.7516534  0.2404877 -0.0747337  )
       243           Mo  tau( 243) = (  0.6651877  0.2882426 -0.1518051  )
       244           S   tau( 244) = (  0.7088819  0.2870158 -0.2305016  )
       245           S   tau( 245) = (  0.7091203  0.2868771 -0.0736229  )
       246           Mo  tau( 246) = (  0.6230539  0.3348134 -0.1518051  )
       247           S   tau( 247) = (  0.6666667  0.3333344 -0.2301681  )
       248           S   tau( 248) = (  0.6666667  0.3333344 -0.0732736  )
       249           Mo  tau( 249) = (  0.5812878  0.3818137 -0.1523684  )
       250           S   tau( 250) = (  0.6247368  0.3800127 -0.2304605  )
       251           S   tau( 251) = (  0.6245606  0.3801358 -0.0735848  )
       252           Mo  tau( 252) = (  0.5399609  0.4293038 -0.1531770  )
       253           S   tau( 253) = (  0.5831964  0.4271856 -0.2311636  )
       254           S   tau( 254) = (  0.5829769  0.4273946 -0.0743518  )
       255           Mo  tau( 255) = (  0.4989633  0.4771567 -0.1537958  )
       256           S   tau( 256) = (  0.5419936  0.4748555 -0.2318926  )
       257           S   tau( 257) = (  0.5418936  0.4750927 -0.0751546  )
       258           Mo  tau( 258) = (  0.4580412  0.5250813 -0.1539079  )
       259           S   tau( 259) = (  0.5009763  0.5228123 -0.2322621  )
       260           S   tau( 260) = (  0.5010969  0.5230153 -0.0755691  )
       261           Mo  tau( 261) = (  0.4168988  0.5727453 -0.1535513  )
       262           S   tau( 262) = (  0.4599134  0.5707130 -0.2321176  )
       263           S   tau( 263) = (  0.4602003  0.5708477 -0.0754184  )
       264           Mo  tau( 264) = (  0.3753382  0.6199467 -0.1530780  )
       265           S   tau( 265) = (  0.4185823  0.6182185 -0.2316709  )
       266           S   tau( 266) = (  0.4188805  0.6183017 -0.0749477  )
       267           Mo  tau( 267) = (  0.3333334  0.6666677 -0.1528575  )
       268           S   tau( 268) = (  0.3768734  0.6651847 -0.2312935  )
       269           S   tau( 269) = (  0.3770381  0.6652559 -0.0745534  )
       270           Mo  tau( 270) = (  0.2910224  0.7130663 -0.1531331  )
       271           S   tau( 271) = (  0.3348164  0.7116908 -0.2312935  )
       272           S   tau( 272) = (  0.3347451  0.7117842 -0.0745534  )
       273           Mo  tau( 273) = (  0.2486416  0.7593721 -0.1540407  )
       274           S   tau( 274) = (  0.2926222  0.7579490 -0.2318471  )
       275           S   tau( 275) = (  0.2922615  0.7580846 -0.0751141  )
       276           Mo  tau( 276) = (  0.2064582  0.8058694 -0.1557147  )
       277           S   tau( 277) = (  0.2505111  0.8042042 -0.2330826  )
       278           S   tau( 278) = (  0.2498300  0.8044158 -0.0763613  )
       279           Mo  tau( 279) = (  0.1647165  0.8528052 -0.1581496  )
       280           S   tau( 280) = (  0.2087425  0.8507758 -0.2351167  )
       281           S   tau( 281) = (  0.2077429  0.8510600 -0.0784233  )
       282           Mo  tau( 282) = (  0.1235777  0.9003437 -0.1609413  )
       283           S   tau( 283) = (  0.1674423  0.8979089 -0.2376912  )
       284           S   tau( 284) = (  0.1662714  0.8982047 -0.0810359  )
       285           Mo  tau( 285) = (  0.0830333  0.9484908 -0.1635931  )
       286           S   tau( 286) = (  0.1266752  0.9457376 -0.2404033  )
       287           S   tau( 287) = (  0.1255076  0.9459497 -0.0837851  )
       288           Mo  tau( 288) = (  0.0429050  0.9970765 -0.1651986  )
       289           S   tau( 289) = (  0.0862728  0.9942220 -0.2425878  )
       290           S   tau( 290) = (  0.0853797  0.9941617 -0.0859845  )
       291           Mo  tau( 291) = (  0.9627717  0.0944354 -0.1635553  )
       292           Mo  tau( 292) = (  0.9221644  0.1426145 -0.1608046  )
       293           S   tau( 293) = (  0.9651992  0.1406140 -0.2403524  )
       294           S   tau( 294) = (  0.9656472  0.1396086 -0.0837207  )
       295           Mo  tau( 295) = (  0.8809272  0.1902106 -0.1577929  )
       296           S   tau( 296) = (  0.9240998  0.1885372 -0.2375048  )
       297           S   tau( 297) = (  0.9247748  0.1875962 -0.0808147  )
       298           Mo  tau( 298) = (  0.8390701  0.2372545 -0.1551078  )
       299           S   tau( 299) = (  0.8824190  0.2357759 -0.2347101  )
       300           S   tau( 300) = (  0.8831485  0.2350791 -0.0779587  )
       301           Mo  tau( 301) = (  0.7967443  0.2838963 -0.1532094  )
       302           S   tau( 302) = (  0.8402498  0.2824789 -0.2324823  )
       303           S   tau( 303) = (  0.8408801  0.2820990 -0.0756848  )
       304           Mo  tau( 304) = (  0.7542143  0.3303779 -0.1521322  )
       305           S   tau( 305) = (  0.7977656  0.3288759 -0.2310967  )
       306           S   tau( 306) = (  0.7982458  0.3288095 -0.0742544  )
       307           Mo  tau( 307) = (  0.7117585  0.3769472 -0.1518051  )
       308           S   tau( 308) = (  0.7552749  0.3752643 -0.2304605  )
       309           S   tau( 309) = (  0.7555742  0.3754404 -0.0735848  )
       310           Mo  tau( 310) = (  0.6696232  0.4238385 -0.1521322  )
       311           S   tau( 311) = (  0.7129853  0.4218681 -0.2305016  )
       312           S   tau( 312) = (  0.7131239  0.4222452 -0.0736229  )
       313           Mo  tau( 313) = (  0.6279652  0.4711767 -0.1529040  )
       314           S   tau( 314) = (  0.6711252  0.4688918 -0.2310967  )
       315           S   tau( 315) = (  0.6711916  0.4694384 -0.0742544  )
       316           Mo  tau( 316) = (  0.5867586  0.5189291 -0.1537138  )
       317           S   tau( 317) = (  0.6296849  0.5164122 -0.2319236  )
       318           S   tau( 318) = (  0.6298355  0.5170631 -0.0751497  )
       319           Mo  tau( 319) = (  0.5458334  0.5668799 -0.1541497  )
       320           S   tau( 320) = (  0.5886104  0.5643354 -0.2325699  )
       321           S   tau( 321) = (  0.5889627  0.5649976 -0.0758561  )
       322           Mo  tau( 322) = (  0.5048890  0.6146984 -0.1540235  )
       323           S   tau( 323) = (  0.5476661  0.6123660 -0.2327144  )
       324           S   tau( 324) = (  0.5482173  0.6129409 -0.0760182  )
       325           Mo  tau( 325) = (  0.4636694  0.6621037 -0.1535534  )
       326           S   tau( 326) = (  0.5066359  0.6601237 -0.2323632  )
       327           S   tau( 327) = (  0.5072518  0.6605895 -0.0756491  )
       328           Mo  tau( 328) = (  0.4220429  0.7089787 -0.1531331  )
       329           S   tau( 329) = (  0.4653259  0.7073789 -0.2318471  )
       330           S   tau( 330) = (  0.4658221  0.7077396 -0.0751141  )
       331           Mo  tau( 331) = (  0.3800544  0.7553936 -0.1530780  )
       332           S   tau( 332) = (  0.4236713  0.7540765 -0.2315401  )
       333           S   tau( 333) = (  0.4239198  0.7543628 -0.0748060  )
       334           Mo  tau( 334) = (  0.3378974  0.8015678 -0.1535534  )
       335           S   tau( 335) = (  0.3817825  0.8003658 -0.2316709  )
       336           S   tau( 336) = (  0.3816994  0.8005809 -0.0749477  )
       337           Mo  tau( 337) = (  0.2957973  0.8477594 -0.1546711  )
       338           S   tau( 338) = (  0.3398774  0.8465143 -0.2323632  )
       339           S   tau( 339) = (  0.3394116  0.8466644 -0.0756491  )
       340           Mo  tau( 340) = (  0.2539978  0.8942584 -0.1565308  )
       341           S   tau( 341) = (  0.2981530  0.8927825 -0.2337124  )
       342           S   tau( 342) = (  0.2972628  0.8928649 -0.0770152  )
       343           Mo  tau( 343) = (  0.2126909  0.9412893 -0.1589393  )
       344           S   tau( 344) = (  0.2568013  0.9394702 -0.2357549  )
       345           S   tau( 345) = (  0.2555556  0.9394549 -0.0790681  )
       346           Mo  tau( 346) = (  0.1719461  0.9889674 -0.1614886  )
       347           S   tau( 347) = (  0.2159132  0.9867930 -0.2381031  )
       348           S   tau( 348) = (  0.2144392  0.9866006 -0.0814475  )
       349           Mo  tau( 349) = (  0.9699514  0.2309434 -0.1588215  )
       350           Mo  tau( 350) = (  0.9281949  0.2783666 -0.1562051  )
       351           S   tau( 351) = (  0.9715580  0.2767043 -0.2356163  )
       352           S   tau( 352) = (  0.9719885  0.2756919 -0.0789080  )
       353           Mo  tau( 353) = (  0.8858684  0.3253369 -0.1541627  )
       354           S   tau( 354) = (  0.9293347  0.3236903 -0.2334050  )
       355           S   tau( 355) = (  0.9298517  0.3231155 -0.0766645  )
       356           Mo  tau( 356) = (  0.8432106  0.3720359 -0.1529040  )
       357           S   tau( 357) = (  0.8867264  0.3703162 -0.2319236  )
       358           S   tau( 358) = (  0.8872266  0.3701656 -0.0751496  )
       359           Mo  tau( 359) = (  0.8005249  0.4187133 -0.1523684  )
       360           S   tau( 360) = (  0.8439882  0.4168047 -0.2311636  )
       361           S   tau( 361) = (  0.8444167  0.4170242 -0.0743518  )
       362           Mo  tau( 362) = (  0.7580776  0.4655888 -0.1525041  )
       363           S   tau( 363) = (  0.8014031  0.4634214 -0.2310675  )
       364           S   tau( 364) = (  0.8017510  0.4639572 -0.0742277  )
       365           Mo  tau( 365) = (  0.7161047  0.5128501 -0.1532095  )
       366           S   tau( 366) = (  0.7592155  0.5103593 -0.2315749  )
       367           S   tau( 367) = (  0.7595133  0.5111678 -0.0747338  )
       368           Mo  tau( 368) = (  0.6746642  0.5605336 -0.1541627  )
       369           S   tau( 369) = (  0.7175222  0.5577729 -0.2324823  )
       370           S   tau( 370) = (  0.7179021  0.5587832 -0.0756849  )
       371           Mo  tau( 371) = (  0.6336713  0.6085205 -0.1549117  )
       372           S   tau( 372) = (  0.6763108  0.6056465 -0.2334051  )
       373           S   tau( 373) = (  0.6768856  0.6067382 -0.0766645  )
       374           Mo  tau( 374) = (  0.5928673  0.6565188 -0.1550790  )
       375           S   tau( 375) = (  0.6354094  0.6537804 -0.2338939  )
       376           S   tau( 376) = (  0.6362501  0.6548368 -0.0771905  )
       377           Mo  tau( 377) = (  0.5519611  0.7042038 -0.1546711  )
       378           S   tau( 378) = (  0.5946286  0.7018481 -0.2337124  )
       379           S   tau( 379) = (  0.5956011  0.7027383 -0.0770152  )
       380           Mo  tau( 380) = (  0.5107295  0.7513595 -0.1540407  )
       381           S   tau( 381) = (  0.5536921  0.7494900 -0.2330826  )
       382           S   tau( 382) = (  0.5545848  0.7501711 -0.0763613  )
       383           Mo  tau( 383) = (  0.4691292  0.7979632 -0.1535940  )
       384           S   tau( 384) = (  0.5124811  0.7965362 -0.2324180  )
       385           S   tau( 385) = (  0.5131077  0.7970269 -0.0756937  )
       386           Mo  tau( 386) = (  0.4272558  0.8441556 -0.1535513  )
       387           S   tau( 387) = (  0.4709776  0.8430440 -0.2320437  )
       388           S   tau( 388) = (  0.4712516  0.8433654 -0.0753329  )
       389           Mo  tau( 389) = (  0.3853027  0.8901926 -0.1540235  )
       390           S   tau( 390) = (  0.4292882  0.8892025 -0.2321176  )
       391           S   tau( 391) = (  0.4291534  0.8893547 -0.0754184  )
       392           Mo  tau( 392) = (  0.3434823  0.9363505 -0.1550790  )
       393           S   tau( 393) = (  0.3876351  0.9353022 -0.2327144  )
       394           S   tau( 394) = (  0.3870602  0.9352785 -0.0760182  )
       395           Mo  tau( 395) = (  0.3020023  0.9829055 -0.1567669  )
       396           S   tau( 396) = (  0.3462207  0.9816310 -0.2338939  )
       397           S   tau( 397) = (  0.3451644  0.9814154 -0.0771905  )
       398           Mo  tau( 398) = (  0.9748483  0.3663298 -0.1549117  )
       399           Mo  tau( 399) = (  0.9321695  0.4132425 -0.1537138  )
       400           S   tau( 400) = (  0.9757241  0.4113907 -0.2325698  )
       401           S   tau( 401) = (  0.9760340  0.4110385 -0.0758561  )
       402           Mo  tau( 402) = (  0.8893419  0.4600402 -0.1531771  )
       403           S   tau( 403) = (  0.9328609  0.4580075 -0.2318926  )
       404           S   tau( 404) = (  0.9331982  0.4581075 -0.0751546  )
       405           Mo  tau( 405) = (  0.8466712  0.5069533 -0.1532767  )
       406           S   tau( 406) = (  0.8900548  0.5046532 -0.2318330  )
       407           S   tau( 407) = (  0.8903929  0.5051638 -0.0750622  )
       408           Mo  tau( 408) = (  0.8044216  0.5541761 -0.1539869  )
       409           S   tau( 409) = (  0.8475735  0.5515280 -0.2323834  )
       410           S   tau( 410) = (  0.8479375  0.5524286 -0.0755822  )
       411           Mo  tau( 411) = (  0.7627466  0.6018177 -0.1551079  )
       412           S   tau( 412) = (  0.8056170  0.5988444 -0.2334534  )
       413           S   tau( 413) = (  0.8060861  0.6000601 -0.0766605  )
       414           Mo  tau( 414) = (  0.7216345  0.6498304 -0.1562052  )
       415           S   tau( 415) = (  0.7642252  0.6466451 -0.2347102  )
       416           S   tau( 416) = (  0.7649220  0.6480715 -0.0779588  )
       417           Mo  tau( 417) = (  0.6809023  0.6979989 -0.1567670  )
       418           S   tau( 418) = (  0.7232968  0.6948558 -0.2356163  )
       419           S   tau( 419) = (  0.7243092  0.6962987 -0.0789081  )
       420           Mo  tau( 420) = (  0.6402596  0.7460033 -0.1565308  )
       421           S   tau( 421) = (  0.6826680  0.7431999 -0.2357549  )
       422           S   tau( 422) = (  0.6838984  0.7444455 -0.0790682  )
       423           Mo  tau( 423) = (  0.5994102  0.7935429 -0.1557147  )
       424           S   tau( 424) = (  0.6420323  0.7912586 -0.2351167  )
       425           S   tau( 425) = (  0.6433161  0.7922582 -0.0784233  )
       426           Mo  tau( 426) = (  0.5582199  0.8404881 -0.1547924  )
       427           S   tau( 427) = (  0.6012317  0.8387764 -0.2340625  )
       428           S   tau( 428) = (  0.6023103  0.8394920 -0.0773541  )
       429           Mo  tau( 429) = (  0.5166853  0.8868973 -0.1541387  )
       430           S   tau( 430) = (  0.5601277  0.8856681 -0.2330725  )
       431           S   tau( 431) = (  0.5608211  0.8860940 -0.0763641  )
       432           Mo  tau( 432) = (  0.4749199  0.9329620 -0.1539079  )
       433           S   tau( 433) = (  0.5187364  0.9320539 -0.2324408  )
       434           S   tau( 434) = (  0.5189801  0.9322098 -0.0757482  )
       435           Mo  tau( 435) = (  0.4331212  0.9789555 -0.1541497  )
       436           S   tau( 436) = (  0.4771888  0.9781660 -0.2322621  )
       437           S   tau( 437) = (  0.4769858  0.9780836 -0.0755691  )
       438           Mo  tau( 438) = (  0.9781924  0.5010378 -0.1537958  )
       439           Mo  tau( 439) = (  0.9353948  0.5479586 -0.1540377  )
       440           S   tau( 440) = (  0.9789267  0.5456606 -0.2323869  )
       441           S   tau( 441) = (  0.9790530  0.5459843 -0.0756732  )
       442           Mo  tau( 442) = (  0.8929371  0.5951333 -0.1549005  )
       443           S   tau( 443) = (  0.9362624  0.5924753 -0.2331294  )
       444           S   tau( 444) = (  0.9364609  0.5932547 -0.0763906  )
       445           Mo  tau( 445) = (  0.8510431  0.6427132 -0.1562840  )
       446           S   tau( 446) = (  0.8940609  0.6396551 -0.2344718  )
       447           S   tau( 447) = (  0.8943859  0.6408608 -0.0777174  )
       448           Mo  tau( 448) = (  0.8097905  0.6907187 -0.1577931  )
       449           S   tau( 449) = (  0.8524876  0.6873538 -0.2361161  )
       450           S   tau( 450) = (  0.8530632  0.6888772 -0.0793909  )
       451           Mo  tau( 451) = (  0.7690577  0.7390100 -0.1588215  )
       452           S   tau( 452) = (  0.8114639  0.7355646 -0.2375049  )
       453           S   tau( 453) = (  0.8124049  0.7371804 -0.0808147  )
       454           Mo  tau( 454) = (  0.7285975  0.7873102 -0.1589393  )
       455           S   tau( 455) = (  0.7708789  0.7840880 -0.2381031  )
       456           S   tau( 456) = (  0.7721604  0.7855619 -0.0814475  )
       457           Mo  tau( 457) = (  0.6880877  0.8352846 -0.1581496  )
       458           S   tau( 458) = (  0.7304656  0.8325589 -0.2376912  )
       459           S   tau( 459) = (  0.7319323  0.8337297 -0.0810359  )
       460           Mo  tau( 460) = (  0.6472985  0.8826970 -0.1568053  )
       461           S   tau( 461) = (  0.6899958  0.8806154 -0.2364609  )
       462           S   tau( 462) = (  0.6913786  0.8814023 -0.0797807  )
       463           Mo  tau( 463) = (  0.6061185  0.9294898 -0.1554229  )
       464           S   tau( 464) = (  0.6492550  0.9280187 -0.2348677  )
       465           S   tau( 465) = (  0.6503322  0.9284542 -0.0781658  )
       466           Mo  tau( 466) = (  0.5645871  0.9757857 -0.1543706  )
[...]
     atom  281 type  2   force =     0.00000116    0.00000019   -0.00001095
     atom  282 type  1   force =     0.00000469    0.00002417   -0.00000634
     atom  283 type  2   force =    -0.00000141    0.00000012    0.00000468
     atom  284 type  2   force =     0.00000292    0.00000078    0.00000197
     atom  285 type  1   force =    -0.00000273    0.00002138    0.00000176
     atom  286 type  2   force =    -0.00000013    0.00000051    0.00000018
     atom  287 type  2   force =    -0.00000048    0.00000056    0.00000095
     atom  288 type  1   force =     0.00000594    0.00000303    0.00001449
     atom  289 type  2   force =    -0.00000153    0.00000035   -0.00000302
     atom  290 type  2   force =     0.00000052    0.00000142    0.00000143
     atom  291 type  1   force =    -0.00001302   -0.00003361   -0.00000558
     atom  292 type  1   force =    -0.00002392   -0.00004106   -0.00000113
     atom  293 type  2   force =     0.00000053   -0.00000082   -0.00000465
     atom  294 type  2   force =    -0.00000240   -0.00000262    0.00000893
     atom  295 type  1   force =    -0.00003580   -0.00004953    0.00001042
     atom  296 type  2   force =     0.00000016   -0.00000066    0.00000025
     atom  297 type  2   force =    -0.00000350   -0.00000303    0.00000181
     atom  298 type  1   force =    -0.00003406   -0.00003884    0.00000845
     atom  299 type  2   force =    -0.00000068    0.00000130    0.00000175
     atom  300 type  2   force =    -0.00000071   -0.00000308    0.00000101
     atom  301 type  1   force =    -0.00001332   -0.00002131    0.00000658
     atom  302 type  2   force =    -0.00000097    0.00000081    0.00000088
     atom  303 type  2   force =    -0.00000185   -0.00000169    0.00000361
     atom  304 type  1   force =    -0.00001014   -0.00001733   -0.00000437
     atom  305 type  2   force =     0.00000026    0.00000156   -0.00000050
     atom  306 type  2   force =    -0.00000272   -0.00000054    0.00000376
     atom  307 type  1   force =     0.00000704   -0.00000187    0.00000464
     atom  308 type  2   force =    -0.00000036    0.00000043    0.00000301
     atom  309 type  2   force =    -0.00000219   -0.00000176    0.00000500
     atom  310 type  1   force =     0.00002013   -0.00000017   -0.00000436
     atom  311 type  2   force =     0.00000032   -0.00000138    0.00000303
     atom  312 type  2   force =     0.00000023   -0.00000153    0.00000704
     atom  313 type  1   force =     0.00002332   -0.00000183    0.00000606
     atom  314 type  2   force =    -0.00000147   -0.00000056   -0.00000051
     atom  315 type  2   force =     0.00000183   -0.00000209    0.00000378
     atom  316 type  1   force =     0.00001915   -0.00000482    0.00001263
     atom  317 type  2   force =    -0.00000179   -0.00000058    0.00000026
     atom  318 type  2   force =     0.00000330   -0.00000057    0.00000155
     atom  319 type  1   force =     0.00002519   -0.00001308    0.00002204
     atom  320 type  2   force =    -0.00000224   -0.00000011    0.00000245
     atom  321 type  2   force =     0.00000158   -0.00000112   -0.00000140
     atom  322 type  1   force =     0.00001319   -0.00001809    0.00002556
     atom  323 type  2   force =    -0.00000029   -0.00000114    0.00000403
     atom  324 type  2   force =    -0.00000027   -0.00000185   -0.00000474
     atom  325 type  1   force =     0.00000592   -0.00001257    0.00001641
     atom  326 type  2   force =     0.00000039   -0.00000073    0.00000399
     atom  327 type  2   force =     0.00000074    0.00000120   -0.00000360
     atom  328 type  1   force =     0.00000046   -0.00001187    0.00001564
     atom  329 type  2   force =    -0.00000012    0.00000147    0.00001214
     atom  330 type  2   force =     0.00000149   -0.00000004   -0.00000268
     atom  331 type  1   force =     0.00001309    0.00000005    0.00003305
     atom  332 type  2   force =     0.00000005    0.00000294    0.00001512
     atom  333 type  2   force =     0.00000115   -0.00000094   -0.00000362
     atom  334 type  1   force =     0.00000801    0.00001140    0.00001627
     atom  335 type  2   force =     0.00000036    0.00000192    0.00001322
     atom  336 type  2   force =     0.00000152    0.00000015   -0.00000277
     atom  337 type  1   force =     0.00000654    0.00002592    0.00001653
     atom  338 type  2   force =     0.00000044    0.00000072    0.00000402
     atom  339 type  2   force =    -0.00000139    0.00000005   -0.00000358
     atom  340 type  1   force =    -0.00000881    0.00004112    0.00005311
     atom  341 type  2   force =    -0.00000027   -0.00000109    0.00001040
     atom  342 type  2   force =    -0.00000101   -0.00000013   -0.00000705
     atom  343 type  1   force =    -0.00000427    0.00005253   -0.00002457
     atom  344 type  2   force =    -0.00000040   -0.00000046    0.00000648
     atom  345 type  2   force =     0.00000069    0.00000354    0.00000071
     atom  346 type  1   force =    -0.00002385    0.00004489   -0.00001006
     atom  347 type  2   force =    -0.00000154    0.00000027    0.00000149
     atom  348 type  2   force =    -0.00000013    0.00000271    0.00000184
     atom  349 type  1   force =    -0.00004118   -0.00003983   -0.00001393
     atom  350 type  1   force =    -0.00004505   -0.00003613    0.00000267
     atom  351 type  2   force =     0.00000010    0.00000054    0.00000215
     atom  352 type  2   force =    -0.00000215   -0.00000166   -0.00000198
     atom  353 type  1   force =    -0.00002729   -0.00003118    0.00001033
     atom  354 type  2   force =    -0.00000090    0.00000063    0.00000112
     atom  355 type  2   force =    -0.00000152   -0.00000231   -0.00000041
     atom  356 type  1   force =    -0.00001329   -0.00001933    0.00000596
     atom  357 type  2   force =     0.00000039    0.00000183    0.00000025
     atom  358 type  2   force =    -0.00000214   -0.00000258    0.00000153
     atom  359 type  1   force =     0.00000534   -0.00001833    0.00001561
     atom  360 type  2   force =     0.00000088    0.00000005    0.00000147
     atom  361 type  2   force =    -0.00000243   -0.00000242    0.00000366
     atom  362 type  1   force =     0.00002495   -0.00000857    0.00001476
     atom  363 type  2   force =     0.00000038    0.00000062    0.00000236
     atom  364 type  2   force =    -0.00000027   -0.00000188    0.00000339
     atom  365 type  1   force =     0.00002511   -0.00000084    0.00000654
     atom  366 type  2   force =     0.00000108   -0.00000061    0.00000063
     atom  367 type  2   force =     0.00000201   -0.00000157    0.00000412
     atom  368 type  1   force =     0.00004062   -0.00000798    0.00001033
     atom  369 type  2   force =    -0.00000022   -0.00000125    0.00000088
     atom  370 type  2   force =     0.00000240   -0.00000076    0.00000361
     atom  371 type  1   force =     0.00004290   -0.00001601    0.00000684
     atom  372 type  2   force =    -0.00000008   -0.00000112    0.00000113
     atom  373 type  2   force =     0.00000278   -0.00000016   -0.00000041
     atom  374 type  1   force =     0.00003316   -0.00002257    0.00002118
     atom  375 type  2   force =    -0.00000128   -0.00000176    0.00000507
     atom  376 type  2   force =     0.00000142    0.00000013    0.00000142
     atom  377 type  1   force =     0.00001913   -0.00001863    0.00001662
     atom  378 type  2   force =    -0.00000082    0.00000077    0.00001038
     atom  379 type  2   force =     0.00000038    0.00000095   -0.00000704
     atom  380 type  1   force =     0.00001321   -0.00002312    0.00003962
     atom  381 type  2   force =     0.00000036    0.00000013    0.00000890
     atom  382 type  2   force =     0.00000088   -0.00000061   -0.00000793
     atom  383 type  1   force =     0.00001878   -0.00000186    0.00001965
     atom  384 type  2   force =     0.00000088    0.00000111    0.00001368
     atom  385 type  2   force =     0.00000255   -0.00000000   -0.00000357
     atom  386 type  1   force =     0.00001150    0.00001339    0.00003248
     atom  387 type  2   force =     0.00000028    0.00000171    0.00000543
     atom  388 type  2   force =     0.00000217   -0.00000112   -0.00000289
     atom  389 type  1   force =     0.00000909    0.00002048    0.00002554
     atom  390 type  2   force =     0.00000068    0.00000040   -0.00000008
     atom  391 type  2   force =     0.00000115    0.00000029   -0.00000339
     atom  392 type  1   force =     0.00000294    0.00004000    0.00002123
     atom  393 type  2   force =     0.00000115    0.00000032    0.00000404
     atom  394 type  2   force =     0.00000175    0.00000069   -0.00000475
     atom  395 type  1   force =    -0.00000587    0.00005443   -0.00003533
     atom  396 type  2   force =     0.00000217   -0.00000023    0.00000506
     atom  397 type  2   force =    -0.00000085    0.00000117    0.00000143
     atom  398 type  1   force =    -0.00003525   -0.00002914    0.00000674
     atom  399 type  1   force =    -0.00001372   -0.00001413    0.00001262
     atom  400 type  2   force =     0.00000104    0.00000200    0.00000245
     atom  401 type  2   force =    -0.00000175   -0.00000081   -0.00000142
     atom  402 type  1   force =    -0.00000352   -0.00001205    0.00000887
     atom  403 type  2   force =     0.00000115   -0.00000157   -0.00000134
     atom  404 type  2   force =    -0.00000164    0.00000025   -0.00000004
     atom  405 type  1   force =     0.00002315   -0.00000352    0.00000956
     atom  406 type  2   force =     0.00000001    0.00000018   -0.00000026
     atom  407 type  2   force =    -0.00000016   -0.00000036    0.00000396
     atom  408 type  1   force =     0.00003697   -0.00000988    0.00000746
     atom  409 type  2   force =     0.00000183   -0.00000077    0.00000143
     atom  410 type  2   force =     0.00000278   -0.00000228    0.00000558
     atom  411 type  1   force =     0.00005068   -0.00001006    0.00000847
     atom  412 type  2   force =     0.00000090   -0.00000067   -0.00000008
     atom  413 type  2   force =     0.00000527   -0.00000107    0.00000444
     atom  414 type  1   force =     0.00005387   -0.00002099    0.00000266
     atom  415 type  2   force =    -0.00000077   -0.00000124    0.00000174
     atom  416 type  2   force =     0.00000302    0.00000093    0.00000101
     atom  417 type  1   force =     0.00005012   -0.00002208   -0.00003530
     atom  418 type  2   force =    -0.00000051   -0.00000019    0.00000216
     atom  419 type  2   force =     0.00000252   -0.00000102   -0.00000197
     atom  420 type  1   force =     0.00004000   -0.00001295    0.00005321
     atom  421 type  2   force =    -0.00000020    0.00000057    0.00000648
     atom  422 type  2   force =     0.00000273   -0.00000236    0.00000071
     atom  423 type  1   force =     0.00002742   -0.00002159    0.00000838
     atom  424 type  2   force =    -0.00000171    0.00000007    0.00000484
     atom  425 type  2   force =    -0.00000041   -0.00000111   -0.00001090
     atom  426 type  1   force =     0.00002350   -0.00001853    0.00001289
     atom  427 type  2   force =    -0.00000023    0.00000041    0.00001117
     atom  428 type  2   force =     0.00000120   -0.00000073   -0.00001209
     atom  429 type  1   force =     0.00001502   -0.00000690    0.00002435
     atom  430 type  2   force =     0.00000085    0.00000031    0.00000772
     atom  431 type  2   force =     0.00000306   -0.00000089   -0.00000459
     atom  432 type  1   force =     0.00000577    0.00001801    0.00001809
     atom  433 type  2   force =    -0.00000147   -0.00000013    0.00000485
     atom  434 type  2   force =    -0.00000053    0.00000016   -0.00000605
     atom  435 type  1   force =    -0.00000124    0.00002831    0.00002200
     atom  436 type  2   force =    -0.00000074    0.00000019    0.00000496
     atom  437 type  2   force =     0.00000121    0.00000052   -0.00000274
     atom  438 type  1   force =    -0.00000063   -0.00000320    0.00000887
     atom  439 type  1   force =     0.00002333    0.00000145    0.00000203
     atom  440 type  2   force =     0.00000160    0.00000030    0.00000166
     atom  441 type  2   force =    -0.00000030    0.00000132    0.00000084
     atom  442 type  1   force =     0.00003628    0.00000373    0.00001248
     atom  443 type  2   force =     0.00000186    0.00000005   -0.00000075
     atom  444 type  2   force =     0.00000263    0.00000112    0.00000222
     atom  445 type  1   force =     0.00005719   -0.00001205    0.00001554
     atom  446 type  2   force =     0.00000389   -0.00000212    0.00000204
     atom  447 type  2   force =     0.00000356   -0.00000002    0.00000417
     atom  448 type  1   force =     0.00006079   -0.00000629    0.00001042
     atom  449 type  2   force =     0.00000231   -0.00000100    0.00000067
     atom  450 type  2   force =     0.00000487    0.00000036    0.00000474
     atom  451 type  1   force =     0.00005518   -0.00001574   -0.00001372
     atom  452 type  2   force =     0.00000051    0.00000047    0.00000025
     atom  453 type  2   force =     0.00000439   -0.00000151    0.00000182
     atom  454 type  1   force =     0.00004763   -0.00002261   -0.00002468
     atom  455 type  2   force =     0.00000100    0.00000120    0.00000148
     atom  456 type  2   force =     0.00000242   -0.00000124    0.00000183
     atom  457 type  1   force =     0.00002068   -0.00001434    0.00000209
     atom  458 type  2   force =     0.00000080    0.00000117    0.00000465
     atom  459 type  2   force =    -0.00000077   -0.00000292    0.00000205
     atom  460 type  1   force =     0.00002490   -0.00003039    0.00003207
     atom  461 type  2   force =    -0.00000006    0.00000033    0.00000443
     atom  462 type  2   force =     0.00000002   -0.00000266   -0.00000007
     atom  463 type  1   force =     0.00000838   -0.00002275    0.00001696
     atom  464 type  2   force =     0.00000025   -0.00000098    0.00000735
     atom  465 type  2   force =     0.00000249   -0.00000151   -0.00000052
     atom  466 type  1   force =    -0.00000068    0.00000011    0.00001174
     atom  467 type  2   force =    -0.00000157   -0.00000135    0.00000646
     atom  468 type  2   force =     0.00000123   -0.00000109    0.00000061
     atom  469 type  1   force =     0.00002671    0.00001208    0.00000546
     atom  470 type  1   force =     0.00005037    0.00000967    0.00001048
     atom  471 type  2   force =     0.00000129   -0.00000001    0.00000035
     atom  472 type  2   force =     0.00000277    0.00000048    0.00000423
     atom  473 type  1   force =     0.00006204    0.00000950   -0.00000582
     atom  474 type  2   force =     0.00000335   -0.00000084    0.00000231
     atom  475 type  2   force =     0.00000368    0.00000020    0.00000498
     atom  476 type  1   force =     0.00004753   -0.00000018   -0.00000106
     atom  477 type  2   force =     0.00000134    0.00000178   -0.00000300
     atom  478 type  2   force =     0.00000465    0.00000033    0.00000467
     atom  479 type  1   force =     0.00005081   -0.00000175   -0.00000986
     atom  480 type  2   force =     0.00000045    0.00000087   -0.00000466
     atom  481 type  2   force =     0.00000345   -0.00000077    0.00000894
     atom  482 type  1   force =     0.00001855   -0.00001616   -0.00000631
     atom  483 type  2   force =     0.00000050   -0.00000013    0.00000020
     atom  484 type  2   force =     0.00000074    0.00000012    0.00000096
     atom  485 type  1   force =     0.00000594   -0.00002692    0.00002097
     atom  486 type  2   force =     0.00000098    0.00000055    0.00000266
     atom  487 type  2   force =    -0.00000054   -0.00000236    0.00000624
     atom  488 type  1   force =    -0.00000134   -0.00004199    0.00002590
     atom  489 type  2   force =    -0.00000024   -0.00000048    0.00000266
     atom  490 type  2   force =    -0.00000198   -0.00000382    0.00000267
     atom  491 type  1   force =     0.00004327    0.00001472    0.00001327
     atom  492 type  1   force =     0.00004403    0.00000381   -0.00000648
     atom  493 type  2   force =     0.00000121    0.00000065    0.00000100
     atom  494 type  2   force =     0.00000254   -0.00000009    0.00000445
     atom  495 type  1   force =     0.00003567    0.00000547   -0.00000549
     atom  496 type  2   force =     0.00000143    0.00000150   -0.00000366
     atom  497 type  2   force =     0.00000247    0.00000095    0.00000541
     atom  498 type  1   force =     0.00001997   -0.00000832    0.00000178
     atom  499 type  2   force =     0.00000108    0.00000116   -0.00000302
     atom  500 type  2   force =     0.00000096   -0.00000117    0.00000143
     atom  501 type  1   force =    -0.00000257   -0.00003458    0.00000011
     atom  502 type  2   force =    -0.00000098   -0.00000193   -0.00000344
     atom  503 type  2   force =     0.00000086   -0.00000130   -0.00000011
     atom  504 type  1   force =     0.00002600    0.00000272    0.00001092
     atom  505 type  1   force =    -0.00000030   -0.00000667    0.00001450
     atom  506 type  2   force =    -0.00000054   -0.00000044   -0.00000113
     atom  507 type  2   force =     0.00000047    0.00000008    0.00000350

     Total force =     0.024962     Total SCF correction =     0.000523

     Writing all to output data dir ./tmp/bilayer.save/
 
     init_run     :      4.46s CPU      7.05s WALL (       1 calls)
     electrons    :      3.24s CPU      3.54s WALL (       1 calls)
     forces       :      1.28s CPU      3.56s WALL (       1 calls)

     Called by init_run:
     wfcinit      :      0.51s CPU      1.38s WALL (       1 calls)
                                        1.38s GPU  (       1 calls)
     potinit      :      2.25s CPU      2.55s WALL (       1 calls)
     hinit0       :      1.00s CPU      1.41s WALL (       1 calls)

     Called by electrons:
     c_bands      :      0.00s CPU      0.00s WALL (       1 calls)
     sum_band     :      1.53s CPU      1.57s WALL (       1 calls)
     v_of_rho     :      3.79s CPU      4.10s WALL (       2 calls)
     v_h          :      0.03s CPU      0.03s WALL (       2 calls)
     v_xc         :      3.75s CPU      4.05s WALL (       2 calls)
     mix_rho      :      0.01s CPU      0.01s WALL (       1 calls)
     vdW_kernel   :      0.67s CPU      0.67s WALL (       1 calls)

     Called by c_bands:
     init_us_2    :      0.02s CPU      0.02s WALL (       1 calls)
     init_us_2:gp :      0.02s CPU      0.02s WALL (       1 calls)

     Called by sum_band:
     sum_band:wei :      0.00s CPU      0.00s WALL (       1 calls)
                                        0.00s GPU  (       1 calls)
     sum_band:loo :      1.51s CPU      1.53s WALL (       1 calls)
                                        1.53s GPU  (       1 calls)
     sum_band:buf :      0.00s CPU      0.00s WALL (       1 calls)
                                        0.00s GPU  (       1 calls)
     sum_band:ini :      0.02s CPU      0.02s WALL (       1 calls)
                                        0.02s GPU  (       1 calls)

     Called by *egterg:

     Called by h_psi:

     General routines
     calbec       :      0.88s CPU      3.14s WALL (       4 calls)
     fft          :      1.14s CPU      1.38s WALL (     117 calls)
                                        0.14s GPU  (      12 calls)
     ffts         :      0.01s CPU      0.01s WALL (       1 calls)
     fftw         :      1.41s CPU      1.47s WALL (    1318 calls)
                                        1.45s GPU  (    1318 calls)
     davcio       :      0.00s CPU      0.65s WALL (       1 calls)
 
     Parallel routines
 
     PWSCF        :     12.56s CPU     41.10s WALL

 
   This run was terminated on:  20:41: 9  18Dec2023            

=------------------------------------------------------------------------------=
   JOB DONE.
=------------------------------------------------------------------------------=
