
     Program PWSCF v.7.0 starts on 18Dec2023 at 20:43: 3 

     This program is part of the open-source Quantum ESPRESSO suite
     for quantum simulation of materials; please cite
         "P. Giannozzi et al., J. Phys.:Condens. Matter 21 395502 (2009);
         "P. Giannozzi et al., J. Phys.:Condens. Matter 29 465901 (2017);
         "P. Giannozzi et al., J. Chem. Phys. 152 154105 (2020);
          URL http://www.quantum-espresso.org", 
     in publications or presentations arising from this work. More details at
     http://www.quantum-espresso.org/quote

     Parallel version (MPI & OpenMP), running on      32 processor cores
     Number of MPI processes:                32
     Threads/MPI process:                     1

     MPI processes distributed on     8 nodes
     R & G space division:  proc/nbgrp/npool/nimage =      32
     239578 MiB available memory on the printing compute node when the environment starts
 
     Waiting for input...
     Reading input from standard input

     Current dimensions of program PWSCF are:
     Max number of different atomic species (ntypx) = 10
     Max number of k-points (npk) =  40000
     Max angular momentum in pseudopotentials (lmaxx) =  4
     Presently no symmetry can be used with electric field


     IMPORTANT: XC functional enforced from input :
     Exchange-correlation= VDW-DF-C09
                           (   1   4  16   0   1   0   0)
     Any further DFT definition will be discarded
     Please, verify this is what you really want


     gamma-point specific algorithms are used

     Subspace diagonalization in iterative solution of the eigenvalue problem:
     a serial algorithm will be used

 
     Parallelization info
     --------------------
     sticks:   dense  smooth     PW     G-vecs:    dense   smooth      PW
     Min        2077    2077    518               210701   210701   26326
     Max        2080    2080    520               210706   210706   26332
     Sum       66499   66499  16633              6742515  6742515  842537
 
     Using Slab Decomposition
 


     bravais-lattice index     =            0
     lattice parameter (alat)  =      77.6351  a.u.
     unit-cell volume          =  197276.7112 (a.u.)^3
     number of atoms/cell      =          507
     number of atomic types    =            2
     number of electrons       =      4394.00
     number of Kohn-Sham states=         2636
     kinetic-energy cutoff     =      40.0000  Ry
     charge density cutoff     =     160.0000  Ry
     scf convergence threshold =      1.0E-08
     mixing beta               =       0.3000
     number of iterations used =            8  local-TF  mixing
     Exchange-correlation= VDW-DF-C09
                           (   1   4  16   0   1   0   0)

     GPU acceleration is ACTIVE.


     GPU used by master process:

        Device Number: 0
        Device name: NVIDIA A100-SXM4-40GB
        Compute capability : 80
        Ratio of single to double precision performance  : 2
        Memory Clock Rate (KHz): 1215000
        Memory Bus Width (bits): 5120
        Peak Memory Bandwidth (GB/s): ******

     celldm(1)=  77.635108  celldm(2)=   0.000000  celldm(3)=   0.000000
     celldm(4)=   0.000000  celldm(5)=   0.000000  celldm(6)=   0.000000

     crystal axes: (cart. coord. in units of alat)
               a(1) = (   1.000000   0.000000  -0.000000 )  
               a(2) = (  -0.500000   0.866025  -0.000000 )  
               a(3) = (  -0.000000   0.000000   0.486823 )  

     reciprocal axes: (cart. coord. in units 2 pi/alat)
               b(1) = (  1.000000  0.577350  0.000000 )  
               b(2) = ( -0.000000  1.154701 -0.000000 )  
               b(3) = (  0.000000  0.000000  2.054136 )  


     PseudoPot. # 1 for Mo read from file:
     /global/homes/j/jdgeorga/espresso/pseudo_new/Mo_ONCV_PBE-1.2.upf
     MD5 check sum: 2665c9f4159700498d9a5f7573bd8e9f
     Pseudo is Norm-conserving, Zval = 14.0
     Generated using ONCVPSP code by D. R. Hamann
     Using radial grid of  602 points,  6 beta functions with: 
                l(1) =   0
                l(2) =   0
                l(3) =   1
                l(4) =   1
                l(5) =   2
                l(6) =   2

     PseudoPot. # 2 for S  read from file:
     /global/homes/j/jdgeorga/espresso/pseudo_new/S_ONCV_PBE-1.2.upf
     MD5 check sum: f9d020296ee6110346977bfd66d424f6
     Pseudo is Norm-conserving, Zval =  6.0
     Generated using ONCVPSP code by D. R. Hamann
     Using radial grid of  602 points,  4 beta functions with: 
                l(1) =   0
                l(2) =   0
                l(3) =   1
                l(4) =   1

     atomic species   valence    mass     pseudopotential
        Mo            14.00    95.94000     Mo( 1.00)
        S              6.00    78.96000     S ( 1.00)

     No symmetry found


                                    s                        frac. trans.

      isym =  1     identity                                     

 cryst.   s( 1) = (     1          0          0      )
                  (     0          1          0      )
                  (     0          0          1      )

 cart.    s( 1) = (  1.0000000 -0.0000000  0.0000000 )
                  (  0.0000000  1.0000000  0.0000000 )
                  (  0.0000000  0.0000000  1.0000000 )


   Cartesian axes

     site n.     atom                  positions (alat units)
         1           Mo  tau(   1) = (   0.0443666   0.0025336   0.0804223  )
         2           S   tau(   2) = (   0.0882987   0.0050578   0.0418592  )
         3           S   tau(   3) = (   0.0891617   0.0050057   0.1180973  )
         4           S   tau(   4) = (   0.0198586   0.0395163   0.0422580  )
         5           S   tau(   5) = (   0.0200955   0.0398950   0.1184893  )
         6           Mo  tau(   6) = (   0.1774623   0.0095563   0.0786162  )
         7           S   tau(   7) = (   0.2211388   0.0116060   0.0396506  )
         8           S   tau(   8) = (   0.2225166   0.0114394   0.1159140  )
         9           Mo  tau(   9) = (   0.1087877   0.0446100   0.0796407  )
        10           S   tau(  10) = (   0.1525327   0.0468107   0.0407886  )
        11           S   tau(  11) = (   0.1538062   0.0469944   0.1170338  )
        12           Mo  tau(  12) = (   0.0400518   0.0793479   0.0800128  )
        13           S   tau(  13) = (   0.0840192   0.0815084   0.0414826  )
        14           S   tau(  14) = (   0.0848260   0.0821242   0.1177252  )
        15           Mo  tau(  15) = (  -0.0286036   0.1140242   0.0796223  )
        16           S   tau(  16) = (   0.0156054   0.1160119   0.0414687  )
        17           S   tau(  17) = (   0.0158377   0.1170335   0.1177094  )
        18           S   tau(  18) = (  -0.0526279   0.1506549   0.0407572  )
        19           S   tau(  19) = (  -0.0529066   0.1519136   0.1170090  )
        20           Mo  tau(  20) = (   0.3105494   0.0148060   0.0763176  )
        21           S   tau(  21) = (   0.3544565   0.0160965   0.0375782  )
        22           S   tau(  22) = (   0.3554051   0.0159098   0.1138649  )
        23           Mo  tau(  23) = (   0.2420461   0.0508467   0.0773751  )
        24           S   tau(  24) = (   0.2858280   0.0524354   0.0384922  )
        25           S   tau(  25) = (   0.2870661   0.0524222   0.1147708  )
        26           Mo  tau(  26) = (   0.1734058   0.0863067   0.0783498  )
        27           S   tau(  27) = (   0.2171690   0.0881591   0.0394501  )
        28           S   tau(  28) = (   0.2184878   0.0884153   0.1157135  )
        29           Mo  tau(  29) = (   0.1046918   0.1213040   0.0789426  )
        30           S   tau(  30) = (   0.1485567   0.1232488   0.0401895  )
        31           S   tau(  31) = (   0.1496729   0.1239093   0.1164457  )
        32           Mo  tau(  32) = (   0.0360370   0.1560855   0.0789089  )
        33           S   tau(  33) = (   0.0800834   0.1579706   0.0404518  )
        34           S   tau(  34) = (   0.0807496   0.1590302   0.1167048  )
        35           Mo  tau(  35) = (  -0.0323894   0.1909153   0.0782832  )
        36           S   tau(  36) = (   0.0117994   0.1926425   0.0401136  )
        37           S   tau(  37) = (   0.0120137   0.1939972   0.1163772  )
        38           Mo  tau(  38) = (  -0.1004474   0.2260257   0.0773178  )
        39           S   tau(  39) = (  -0.0561855   0.2276100   0.0393425  )
        40           S   tau(  40) = (  -0.0563185   0.2290095   0.1156227  )
        41           S   tau(  41) = (  -0.1238402   0.2630148   0.0384143  )
        42           S   tau(  42) = (  -0.1241312   0.2642645   0.1147034  )
        43           Mo  tau(  43) = (   0.4436434   0.0182269   0.0750434  )
        44           S   tau(  44) = (   0.4879439   0.0189819   0.0367888  )
        45           S   tau(  45) = (   0.4881057   0.0189105   0.1130704  )
        46           Mo  tau(  46) = (   0.3753069   0.0551238   0.0754958  )
        47           S   tau(  47) = (   0.4194208   0.0560522   0.0370074  )
        48           S   tau(  48) = (   0.4199839   0.0560317   0.1132906  )
        49           Mo  tau(  49) = (   0.3068685   0.0915767   0.0762026  )
        50           S   tau(  50) = (   0.3508303   0.0927835   0.0374928  )
        51           S   tau(  51) = (   0.3517616   0.0928549   0.1137765  )
        52           Mo  tau(  52) = (   0.2383138   0.1274762   0.0769906  )
        53           S   tau(  53) = (   0.2822128   0.1289876   0.0381783  )
        54           S   tau(  54) = (   0.2833545   0.1292337   0.1144601  )
        55           Mo  tau(  55) = (   0.1696642   0.1628366   0.0775930  )
        56           S   tau(  56) = (   0.2136095   0.1645654   0.0388391  )
        57           S   tau(  57) = (   0.2146944   0.1650814   0.1151145  )
        58           Mo  tau(  58) = (   0.1010242   0.1978469   0.0777936  )
        59           S   tau(  59) = (   0.1450670   0.1996290   0.0392153  )
        60           S   tau(  60) = (   0.1459215   0.2004949   0.1154860  )
        61           Mo  tau(  61) = (   0.0325590   0.2327629   0.0774809  )
        62           S   tau(  62) = (   0.0767120   0.2344796   0.0391409  )
        63           S   tau(  63) = (   0.0771886   0.2356512   0.1154213  )
        64           Mo  tau(  64) = (  -0.0355689   0.2678472   0.0768170  )
        65           S   tau(  65) = (   0.0086245   0.2694421   0.0386493  )
        66           S   tau(  66) = (   0.0088106   0.2707613   0.1149466  )
        67           Mo  tau(  67) = (  -0.1032807   0.3032576   0.0760440  )
        68           S   tau(  68) = (  -0.0591138   0.3047808   0.0379521  )
        69           S   tau(  69) = (  -0.0590974   0.3060160   0.1142622  )
        70           Mo  tau(  70) = (  -0.1705890   0.3390330   0.0754144  )
        71           S   tau(  71) = (  -0.1264836   0.3405765   0.0373221  )
        72           S   tau(  72) = (  -0.1265125   0.3415219   0.1136269  )
        73           S   tau(  73) = (  -0.1935362   0.3767249   0.0369285  )
        74           S   tau(  74) = (  -0.1935574   0.3772984   0.1132203  )
        75           Mo  tau(  75) = (   0.5766941   0.0209720   0.0751509  )
        76           S   tau(  76) = (   0.6213523   0.0217233   0.0373413  )
        77           S   tau(  77) = (   0.6207606   0.0218377   0.1136250  )
        78           Mo  tau(  78) = (   0.5084387   0.0580584   0.0749257  )
        79           S   tau(  79) = (   0.5528751   0.0587098   0.0368760  )
        80           S   tau(  80) = (   0.5527094   0.0588449   0.1131575  )
        81           Mo  tau(  81) = (   0.4402063   0.0950978   0.0749820  )
        82           S   tau(  82) = (   0.4844759   0.0958234   0.0367154  )
        83           S   tau(  83) = (   0.4846868   0.0959552   0.1130001  )
        84           Mo  tau(  84) = (   0.3719176   0.1318460   0.0752972  )
        85           S   tau(  85) = (   0.4160793   0.1327943   0.0368277  )
        86           S   tau(  86) = (   0.4166202   0.1329243   0.1131197  )
        87           Mo  tau(  87) = (   0.3035235   0.1681238   0.0758053  )
        88           S   tau(  88) = (   0.3476220   0.1693827   0.0371744  )
        89           S   tau(  89) = (   0.3484090   0.1695659   0.1134699  )
        90           Mo  tau(  90) = (   0.2350023   0.2038611   0.0763362  )
        91           S   tau(  91) = (   0.2790988   0.2054054   0.0376578  )
        92           S   tau(  92) = (   0.2799959   0.2057197   0.1139469  )
        93           Mo  tau(  93) = (   0.1664249   0.2391654   0.0766223  )
        94           S   tau(  94) = (   0.2106068   0.2408607   0.0380529  )
        95           S   tau(  95) = (   0.2113632   0.2414164   0.1143389  )
        96           Mo  tau(  96) = (   0.0979248   0.2742664   0.0765289  )
        97           S   tau(  97) = (   0.1421790   0.2759579   0.0381336  )
        98           S   tau(  98) = (   0.1427097   0.2768030   0.1144244  )
        99           Mo  tau(  99) = (   0.0296865   0.3094212   0.0760824  )
       100           S   tau( 100) = (   0.0739554   0.3110254   0.0378347  )
       101           S   tau( 101) = (   0.0742333   0.3120696   0.1141462  )
       102           Mo  tau( 102) = (  -0.0381623   0.3448378   0.0755099  )
       103           S   tau( 103) = (   0.0060560   0.3463599   0.0373201  )
       104           S   tau( 104) = (   0.0061948   0.3474127   0.1136504  )
       105           Mo  tau( 105) = (  -0.1056027   0.3805909   0.0750498  )
       106           S   tau( 106) = (  -0.0614896   0.3821068   0.0368452  )
       107           S   tau( 107) = (  -0.0613643   0.3829817   0.1131777  )
       108           Mo  tau( 108) = (  -0.1727060   0.4166214   0.0748312  )
       109           S   tau( 109) = (  -0.1286961   0.4182374   0.0365847  )
       110           S   tau( 110) = (  -0.1285213   0.4188011   0.1129057  )
       111           Mo  tau( 111) = (  -0.2396151   0.4527974   0.0748712  )
       112           S   tau( 112) = (  -0.1956528   0.4545848   0.0365871  )
       113           S   tau( 113) = (  -0.1954342   0.4547903   0.1128906  )
       114           S   tau( 114) = (  -0.2625187   0.4909769   0.0368395  )
       115           S   tau( 115) = (  -0.2622937   0.4908059   0.1131312  )
       116           Mo  tau( 116) = (   0.7096641   0.0245473   0.0766223  )
       117           S   tau( 117) = (   0.7545826   0.0258190   0.0392153  )
       118           S   tau( 118) = (   0.7534055   0.0261261   0.1154860  )
       119           Mo  tau( 119) = (   0.6413735   0.0610654   0.0756632  )
       120           S   tau( 120) = (   0.6861050   0.0619622   0.0380529  )
       121           S   tau( 121) = (   0.6852455   0.0623394   0.1143389  )
       122           Mo  tau( 122) = (   0.5732365   0.0979516   0.0750381  )
       123           S   tau( 123) = (   0.6177739   0.0986473   0.0371758  )
       124           S   tau( 124) = (   0.6172935   0.0990161   0.1134650  )
       125           Mo  tau( 125) = (   0.5051780   0.1349670   0.0747521  )
       126           S   tau( 126) = (   0.5495688   0.1356513   0.0366738  )
       127           S   tau( 127) = (   0.5494555   0.1359297   0.1129641  )
       128           Mo  tau( 128) = (   0.4371134   0.1718491   0.0747531  )
       129           S   tau( 129) = (   0.4814089   0.1727038   0.0364863  )
       130           S   tau( 130) = (   0.4815996   0.1728900   0.1127826  )
       131           Mo  tau( 131) = (   0.3689555   0.2083916   0.0749903  )
       132           S   tau( 132) = (   0.4132191   0.2095067   0.0365673  )
       133           S   tau( 133) = (   0.4136476   0.2096241   0.1128684  )
       134           Mo  tau( 134) = (   0.3006460   0.2444514   0.0753563  )
       135           S   tau( 135) = (   0.3449327   0.2458813   0.0368494  )
       136           S   tau( 136) = (   0.3454913   0.2459989   0.1131463  )
       137           Mo  tau( 137) = (   0.2321958   0.2800478   0.0756632  )
       138           S   tau( 138) = (   0.2765425   0.2816946   0.0371758  )
       139           S   tau( 139) = (   0.2771021   0.2819263   0.1134650  )
       140           Mo  tau( 140) = (   0.1637124   0.3153534   0.0756939  )
       141           S   tau( 141) = (   0.2081352   0.3170576   0.0373413  )
       142           S   tau( 142) = (   0.2085301   0.3175129   0.1136250  )
       143           Mo  tau( 143) = (   0.0953703   0.3506266   0.0754089  )
       144           S   tau( 144) = (   0.1398335   0.3522536   0.0371887  )
       145           S   tau( 145) = (   0.1400247   0.3529285   0.1134927  )
       146           Mo  tau( 146) = (   0.0273335   0.3860966   0.0749642  )
       147           S   tau( 147) = (   0.0717232   0.3876100   0.0367952  )
       148           S   tau( 148) = (   0.0718095   0.3883899   0.1131295  )
       149           Mo  tau( 149) = (  -0.0403203   0.4218860   0.0745857  )
       150           S   tau( 150) = (   0.0039294   0.4233429   0.0363822  )
       151           S   tau( 151) = (   0.0040358   0.4240430   0.1127359  )
       152           Mo  tau( 152) = (  -0.1076233   0.4579762   0.0744370  )
       153           S   tau( 153) = (  -0.0635276   0.4594816   0.0361488  )
       154           S   tau( 154) = (  -0.0633207   0.4599549   0.1125032  )
       155           Mo  tau( 155) = (  -0.1746911   0.4942392   0.0745700  )
       156           S   tau( 156) = (  -0.1307204   0.4958926   0.0361963  )
       157           S   tau( 157) = (  -0.1303964   0.4960736   0.1125357  )
       158           Mo  tau( 158) = (  -0.2416767   0.5304958   0.0749889  )
       159           S   tau( 159) = (  -0.1977783   0.5324072   0.0365421  )
       160           S   tau( 160) = (  -0.1973540   0.5322578   0.1128616  )
       161           Mo  tau( 161) = (  -0.3087537   0.5665704   0.0756940  )
       162           S   tau( 162) = (  -0.2648578   0.5688001   0.0371888  )
       163           S   tau( 163) = (  -0.2643689   0.5682970   0.1134927  )
       164           S   tau( 164) = (  -0.3321045   0.6049166   0.0381336  )
       165           S   tau( 165) = (  -0.3316380   0.6040345   0.1144244  )
       166           Mo  tau( 166) = (   0.8426016   0.0300156   0.0789426  )
       167           S   tau( 167) = (   0.8874019   0.0320103   0.0414826  )
       168           S   tau( 168) = (   0.8864652   0.0324011   0.1177252  )
       169           Mo  tau( 169) = (   0.7741472   0.0655170   0.0775930  )
       170           S   tau( 170) = (   0.8189849   0.0670313   0.0401895  )
       171           S   tau( 171) = (   0.8178548   0.0676677   0.1164457  )
       172           Mo  tau( 172) = (   0.7059499   0.1015892   0.0763362  )
       173           S   tau( 173) = (   0.7506773   0.1027103   0.0388391  )
       174           S   tau( 174) = (   0.7496880   0.1033919   0.1151145  )
       175           Mo  tau( 175) = (   0.6379758   0.1381431   0.0753563  )
       176           S   tau( 176) = (   0.6825642   0.1390057   0.0376577  )
       177           S   tau( 177) = (   0.6818434   0.1396256   0.1139469  )
       178           Mo  tau( 178) = (   0.5701475   0.1749708   0.0747728  )
       179           S   tau( 179) = (   0.6145941   0.1757816   0.0368494  )
       180           S   tau( 180) = (   0.6142129   0.1762066   0.1131463  )
       181           Mo  tau( 181) = (   0.5023576   0.2118371   0.0745216  )
       182           S   tau( 182) = (   0.5467384   0.2127299   0.0364173  )
       183           S   tau( 183) = (   0.5466330   0.2129778   0.1127189  )
       184           Mo  tau( 184) = (   0.4344892   0.2484937   0.0745485  )
       185           S   tau( 185) = (   0.4788529   0.2496039   0.0362943  )
       186           S   tau( 186) = (   0.4789710   0.2496849   0.1125989  )
       187           Mo  tau( 187) = (   0.3664538   0.2847786   0.0747728  )
       188           S   tau( 188) = (   0.4108587   0.2861720   0.0364173  )
       189           S   tau( 189) = (   0.4111261   0.2861393   0.1127190  )
       190           Mo  tau( 190) = (   0.2982087   0.3206130   0.0750381  )
       191           S   tau( 191) = (   0.3426915   0.3222601   0.0366738  )
       192           S   tau( 192) = (   0.3429892   0.3222190   0.1129641  )
       193           Mo  tau( 193) = (   0.2298136   0.3561085   0.0751509  )
       194           S   tau( 194) = (   0.2744050   0.3578674   0.0368760  )
       195           S   tau( 195) = (   0.2746049   0.3579434   0.1131575  )
       196           Mo  tau( 196) = (   0.1614155   0.3914811   0.0749889  )
       197           S   tau( 197) = (   0.2060608   0.3931909   0.0368395  )
       198           S   tau( 198) = (   0.2060964   0.3934712   0.1131312  )
       199           Mo  tau( 199) = (   0.0931945   0.4269927   0.0746184  )
       200           S   tau( 200) = (   0.1378110   0.4285425   0.0365421  )
       201           S   tau( 201) = (   0.1377282   0.4289847   0.1128616  )
       202           Mo  tau( 202) = (   0.0252831   0.4628155   0.0742423  )
       203           S   tau( 203) = (   0.0697724   0.4642285   0.0361359  )
       204           S   tau( 204) = (   0.0696923   0.4646925   0.1124889  )
       205           Mo  tau( 205) = (  -0.0422961   0.4989723   0.0740613  )
       206           S   tau( 206) = (   0.0020013   0.5003521   0.0358414  )
       207           S   tau( 207) = (   0.0020512   0.5006787   0.1122135  )
       208           Mo  tau( 208) = (  -0.1096191   0.5353668   0.0741763  )
       209           S   tau( 209) = (  -0.0655073   0.5368199   0.0358229  )
       210           S   tau( 210) = (  -0.0652696   0.5369266   0.1121935  )
       211           Mo  tau( 211) = (  -0.1768122   0.5718211   0.0746185  )
       212           S   tau( 212) = (  -0.1328541   0.5734874   0.0361359  )
       213           S   tau( 213) = (  -0.1324122   0.5733247   0.1124889  )
       214           Mo  tau( 214) = (  -0.2440352   0.6081198   0.0754089  )
       215           S   tau( 215) = (  -0.2001831   0.6101072   0.0367952  )
       216           S   tau( 216) = (  -0.1995507   0.6096425   0.1131295  )
       217           Mo  tau( 217) = (  -0.3114423   0.6440877   0.0765289  )
       218           S   tau( 218) = (  -0.2676234   0.6464663   0.0378347  )
       219           S   tau( 219) = (  -0.2668580   0.6457035   0.1141462  )
       220           Mo  tau( 220) = (  -0.3791733   0.6796132   0.0777937  )
       221           S   tau( 221) = (  -0.3352923   0.6823519   0.0391410  )
       222           S   tau( 222) = (  -0.3345160   0.6813534   0.1154214  )
       223           S   tau( 223) = (  -0.4032367   0.7176866   0.0404518  )
       224           S   tau( 224) = (  -0.4026522   0.7165799   0.1167048  )
       225           Mo  tau( 225) = (   0.9756224   0.0371576   0.0804223  )
       226           Mo  tau( 226) = (   0.9069726   0.0719097   0.0796407  )
       227           S   tau( 227) = (   0.9514703   0.0739417   0.0418592  )
       228           S   tau( 228) = (   0.9510840   0.0747153   0.1180973  )
       229           Mo  tau( 229) = (   0.8385532   0.1070223   0.0783497  )
       230           S   tau( 230) = (   0.8831943   0.1086936   0.0407885  )
       231           S   tau( 231) = (   0.8823984   0.1097047   0.1170338  )
       232           Mo  tau( 232) = (   0.7704453   0.1426495   0.0769906  )
       233           S   tau( 233) = (   0.8150674   0.1439960   0.0394501  )
       234           S   tau( 234) = (   0.8141861   0.1450101   0.1157135  )
       235           Mo  tau( 235) = (   0.7026387   0.1787989   0.0758052  )
       236           S   tau( 236) = (   0.7471870   0.1799114   0.0381782  )
       237           S   tau( 237) = (   0.7464029   0.1807771   0.1144601  )
       238           Mo  tau( 238) = (   0.6350497   0.2153308   0.0749903  )
       239           S   tau( 239) = (   0.6794992   0.2163599   0.0371744  )
       240           S   tau( 240) = (   0.6789471   0.2169498   0.1134699  )
       241           Mo  tau( 241) = (   0.5675535   0.2520336   0.0745485  )
       242           S   tau( 242) = (   0.6119523   0.2531067   0.0365673  )
       243           S   tau( 243) = (   0.6116364   0.2534191   0.1128684  )
       244           Mo  tau( 244) = (   0.4999995   0.2886760   0.0744143  )
       245           S   tau( 245) = (   0.5444101   0.2898986   0.0362943  )
       246           S   tau( 246) = (   0.5442810   0.2899604   0.1125989  )
       247           Mo  tau( 247) = (   0.4322760   0.3250533   0.0745216  )
       248           S   tau( 248) = (   0.4767353   0.3265255   0.0362943  )
       249           S   tau( 249) = (   0.4767464   0.3263828   0.1125989  )
       250           Mo  tau( 250) = (   0.3642943   0.3610458   0.0747521  )
       251           S   tau( 251) = (   0.4088598   0.3627620   0.0364863  )
       252           S   tau( 252) = (   0.4089258   0.3625037   0.1127826  )
       253           Mo  tau( 253) = (   0.2960591   0.3966762   0.0749257  )
       254           S   tau( 254) = (   0.3407459   0.3985460   0.0367154  )
       255           S   tau( 255) = (   0.3407547   0.3982975   0.1130001  )
       256           Mo  tau( 256) = (   0.2276735   0.4321157   0.0748711  )
       257           S   tau( 257) = (   0.2724653   0.4339635   0.0367888  )
       258           S   tau( 258) = (   0.2723226   0.4338590   0.1130704  )
       259           Mo  tau( 259) = (   0.1593218   0.4676207   0.0745699  )
       260           S   tau( 260) = (   0.2041444   0.4692945   0.0365871  )
       261           S   tau( 261) = (   0.2038571   0.4693810   0.1128906  )
       262           Mo  tau( 262) = (   0.0911682   0.5034109   0.0741763  )
       263           S   tau( 263) = (   0.1359045   0.5048737   0.0361963  )
       264           S   tau( 264) = (   0.1355858   0.5050638   0.1125357  )
       265           Mo  tau( 265) = (   0.0232848   0.5395813   0.0739021  )
       266           S   tau( 266) = (   0.0678539   0.5408862   0.0358229  )
       267           S   tau( 267) = (   0.0676427   0.5410388   0.1121934  )
       268           Mo  tau( 268) = (  -0.0443528   0.5760703   0.0739021  )
       269           S   tau( 269) = (  -0.0000005   0.5773512   0.0356714  )
       270           S   tau( 270) = (  -0.0000005   0.5773512   0.1120511  )
       271           Mo  tau( 271) = (  -0.1118332   0.6127227   0.0742423  )
       272           S   tau( 272) = (  -0.0676846   0.6141170   0.0358414  )
       273           S   tau( 273) = (  -0.0674267   0.6139106   0.1122135  )
       274           Mo  tau( 274) = (  -0.1792988   0.6493064   0.0749642  )
       275           S   tau( 275) = (  -0.1353406   0.6509518   0.0363822  )
       276           S   tau( 276) = (  -0.1347874   0.6505096   0.1127359  )
       277           Mo  tau( 277) = (  -0.2468782   0.6856064   0.0760825  )
       278           S   tau( 278) = (  -0.2030731   0.6876016   0.0373202  )
       279           S   tau( 279) = (  -0.2022308   0.6869551   0.1136504  )
       280           Mo  tau( 280) = (  -0.3147025   0.7214478   0.0774809  )
       281           S   tau( 281) = (  -0.2709702   0.7238362   0.0386494  )
       282           S   tau( 282) = (  -0.2699207   0.7230154   0.1149467  )
       283           Mo  tau( 283) = (  -0.3828461   0.7567745   0.0789090  )
       284           S   tau( 284) = (  -0.3390679   0.7594864   0.0401137  )
       285           S   tau( 285) = (  -0.3380019   0.7586235   0.1163773  )
       286           Mo  tau( 286) = (  -0.4513102   0.7916664   0.0800128  )
       287           S   tau( 287) = (  -0.4073351   0.7945056   0.0414687  )
       288           S   tau( 288) = (  -0.4065665   0.7937936   0.1177094  )
       289           S   tau( 289) = (  -0.4757087   0.8290700   0.0422580  )
       290           S   tau( 290) = (  -0.4754992   0.8286755   0.1184893  )
       291           Mo  tau( 291) = (   0.9029928   0.1489105   0.0786162  )
       292           Mo  tau( 292) = (   0.8349423   0.1841965   0.0773751  )
       293           S   tau( 293) = (   0.8793794   0.1857106   0.0396505  )
       294           S   tau( 294) = (   0.8788348   0.1869871   0.1159140  )
       295           Mo  tau( 295) = (   0.7672579   0.2199694   0.0762025  )
       296           S   tau( 296) = (   0.8116756   0.2213184   0.0384922  )
       297           S   tau( 297) = (   0.8110680   0.2223972   0.1147708  )
       298           Mo  tau( 298) = (   0.6998591   0.2561688   0.0752972  )
       299           S   tau( 299) = (   0.7442319   0.2574379   0.0374927  )
       300           S   tau( 300) = (   0.7437044   0.2582089   0.1137765  )
       301           Mo  tau( 301) = (   0.6326175   0.2926286   0.0747531  )
       302           S   tau( 302) = (   0.6769570   0.2939399   0.0368277  )
       303           S   tau( 303) = (   0.6765741   0.2943433   0.1131196  )
       304           Mo  tau( 304) = (   0.5653648   0.3291376   0.0745216  )
       305           S   tau( 305) = (   0.6097297   0.3305622   0.0364863  )
       306           S   tau( 306) = (   0.6094730   0.3306342   0.1127826  )
       307           Mo  tau( 307) = (   0.4979557   0.3655007   0.0745485  )
       308           S   tau( 308) = (   0.5424013   0.3671262   0.0364173  )
       309           S   tau( 309) = (   0.5422393   0.3669110   0.1127189  )
       310           Mo  tau( 310) = (   0.4302674   0.4015503   0.0747531  )
       311           S   tau( 311) = (   0.4748270   0.4034146   0.0365673  )
       312           S   tau( 312) = (   0.4747144   0.4029849   0.1128684  )
       313           Mo  tau( 313) = (   0.3622524   0.4372475   0.0749820  )
       314           S   tau( 314) = (   0.4069620   0.4392938   0.0368277  )
       315           S   tau( 315) = (   0.4068041   0.4387604   0.1131197  )
       316           Mo  tau( 316) = (   0.2939617   0.4727064   0.0750434  )
       317           S   tau( 317) = (   0.3388307   0.4747710   0.0370074  )
       318           S   tau( 318) = (   0.3385314   0.4742936   0.1132906  )
       319           Mo  tau( 319) = (   0.2255482   0.5081486   0.0748312  )
       320           S   tau( 320) = (   0.2705147   0.5100575   0.0369286  )
       321           S   tau( 321) = (   0.2700286   0.5097524   0.1132203  )
       322           Mo  tau( 322) = (   0.1571926   0.5438346   0.0744370  )
       323           S   tau( 323) = (   0.2021437   0.5454544   0.0365847  )
       324           S   tau( 324) = (   0.2015682   0.5453239   0.1129057  )
       325           Mo  tau( 325) = (   0.0890253   0.5799115   0.0740613  )
       326           S   tau( 326) = (   0.1338410   0.5812698   0.0361488  )
       327           S   tau( 327) = (   0.1333276   0.5812123   0.1125032  )
       328           Mo  tau( 328) = (   0.0210664   0.6164018   0.0739021  )
       329           S   tau( 329) = (   0.0656816   0.6175843   0.0358414  )
       330           S   tau( 330) = (   0.0653739   0.6174642   0.1122135  )
       331           Mo  tau( 331) = (  -0.0467309   0.6531696   0.0740613  )
       332           S   tau( 332) = (  -0.0023482   0.6543473   0.0358229  )
       333           S   tau( 333) = (  -0.0023747   0.6540881   0.1121934  )
       334           Mo  tau( 334) = (  -0.1144774   0.6900017   0.0745857  )
       335           S   tau( 335) = (  -0.0703150   0.6913020   0.0361489  )
       336           S   tau( 336) = (  -0.0700085   0.6908861   0.1125032  )
       337           Mo  tau( 337) = (  -0.1822821   0.7266569   0.0755099  )
       338           S   tau( 338) = (  -0.1383426   0.7282244   0.0368452  )
       339           S   tau( 339) = (  -0.1376475   0.7276785   0.1131777  )
       340           Mo  tau( 340) = (  -0.2502546   0.7629061   0.0768171  )
       341           S   tau( 341) = (  -0.2064968   0.7648299   0.0379522  )
       342           S   tau( 342) = (  -0.2054352   0.7641981   0.1142623  )
       343           Mo  tau( 343) = (  -0.3184693   0.7986186   0.0782832  )
       344           S   tau( 344) = (  -0.2747927   0.8008791   0.0393425  )
       345           S   tau( 345) = (  -0.2735143   0.8002947   0.1156228  )
       346           Mo  tau( 346) = (  -0.3869520   0.8337855   0.0796224  )
       347           S   tau( 347) = (  -0.3432167   0.8362758   0.0407572  )
       348           S   tau( 348) = (  -0.3419872   0.8358878   0.1170091  )
       349           Mo  tau( 349) = (   0.8319028   0.2615425   0.0763175  )
       350           Mo  tau( 350) = (   0.7646078   0.2974652   0.0754958  )
       351           S   tau( 351) = (   0.8088317   0.2989219   0.0375781  )
       352           S   tau( 352) = (   0.8085191   0.2998367   0.1138648  )
       353           Mo  tau( 353) = (   0.6975397   0.3336827   0.0749820  )
       354           S   tau( 354) = (   0.7417468   0.3352048   0.0370074  )
       355           S   tau( 355) = (   0.7414831   0.3357026   0.1132906  )
       356           Mo  tau( 356) = (   0.6305261   0.3700152   0.0747521  )
       357           S   tau( 357) = (   0.6747765   0.3716586   0.0367154  )
       358           S   tau( 358) = (   0.6745569   0.3717753   0.1130001  )
       359           Mo  tau( 359) = (   0.5633971   0.4062786   0.0747728  )
       360           S   tau( 360) = (   0.6077381   0.4081167   0.0366738  )
       361           S   tau( 361) = (   0.6075537   0.4078794   0.1129641  )
       362           Mo  tau( 362) = (   0.4959931   0.4423056   0.0749903  )
       363           S   tau( 363) = (   0.5404716   0.4443651   0.0368494  )
       364           S   tau( 364) = (   0.5402941   0.4438225   0.1131463  )
       365           Mo  tau( 365) = (   0.4282216   0.4780132   0.0752972  )
       366           S   tau( 366) = (   0.4728771   0.4802854   0.0371745  )
       367           S   tau( 367) = (   0.4726423   0.4795122   0.1134699  )
       368           Mo  tau( 368) = (   0.3600836   0.5134390   0.0754958  )
       369           S   tau( 369) = (   0.4049362   0.5158065   0.0374928  )
       370           S   tau( 370) = (   0.4045323   0.5149643   0.1137765  )
       371           Mo  tau( 371) = (   0.2916833   0.5487763   0.0754144  )
       372           S   tau( 372) = (   0.3367101   0.5510096   0.0375782  )
       373           S   tau( 373) = (   0.3360742   0.5502815   0.1138648  )
       374           Mo  tau( 374) = (   0.2231999   0.5842772   0.0750498  )
       375           S   tau( 375) = (   0.2682939   0.5862010   0.0373221  )
       376           S   tau( 376) = (   0.2674895   0.5857032   0.1136269  )
       377           Mo  tau( 377) = (   0.1547961   0.6201657   0.0745857  )
       378           S   tau( 378) = (   0.1998306   0.6217223   0.0368452  )
       379           S   tau( 379) = (   0.1990102   0.6213932   0.1131777  )
       380           Mo  tau( 380) = (   0.0865484   0.6565153   0.0742423  )
       381           S   tau( 381) = (   0.1314095   0.6577587   0.0363822  )
       382           S   tau( 382) = (   0.1307500   0.6575008   0.1127359  )
       383           Mo  tau( 383) = (   0.0184492   0.6932758   0.0741763  )
       384           S   tau( 384) = (   0.0630801   0.6943376   0.0361359  )
       385           S   tau( 385) = (   0.0627183   0.6940363   0.1124889  )
       386           Mo  tau( 386) = (  -0.0495710   0.7302426   0.0744370  )
       387           S   tau( 387) = (  -0.0051858   0.7312871   0.0361963  )
       388           S   tau( 388) = (  -0.0051910   0.7309161   0.1125357  )
       389           Mo  tau( 389) = (  -0.1175989   0.7671854   0.0750498  )
       390           S   tau( 390) = (  -0.0734493   0.7683616   0.0365847  )
       391           S   tau( 391) = (  -0.0730486   0.7679284   0.1129057  )
       392           Mo  tau( 392) = (  -0.1857324   0.8038412   0.0760441  )
       393           S   tau( 393) = (  -0.1418119   0.8052760   0.0373221  )
       394           S   tau( 394) = (  -0.1409787   0.8048283   0.1136269  )
       395           Mo  tau( 395) = (  -0.2540339   0.8400033   0.0773178  )
       396           S   tau( 396) = (  -0.2103040   0.8417676   0.0384143  )
       397           S   tau( 397) = (  -0.2090763   0.8413947   0.1147034  )
       398           Mo  tau( 398) = (   0.7623933   0.3750948   0.0750434  )
       399           Mo  tau( 399) = (   0.6955006   0.4112935   0.0749257  )
       400           S   tau( 400) = (   0.7395892   0.4130826   0.0367888  )
       401           S   tau( 401) = (   0.7395701   0.4132585   0.1130705  )
       402           Mo  tau( 402) = (   0.6285531   0.4474634   0.0750381  )
       403           S   tau( 403) = (   0.6727182   0.4494508   0.0368760  )
       404           S   tau( 404) = (   0.6726841   0.4492397   0.1131575  )
       405           Mo  tau( 405) = (   0.5613766   0.4834335   0.0753563  )
       406           S   tau( 406) = (   0.6056819   0.4856861   0.0371758  )
       407           S   tau( 407) = (   0.6056027   0.4850856   0.1134650  )
       408           Mo  tau( 408) = (   0.4938362   0.5191053   0.0758053  )
       409           S   tau( 409) = (   0.5383354   0.5216169   0.0376578  )
       410           S   tau( 410) = (   0.5381590   0.5206828   0.1139469  )
       411           Mo  tau( 411) = (   0.4258719   0.5544819   0.0762026  )
       412           S   tau( 412) = (   0.4705986   0.5571290   0.0381783  )
       413           S   tau( 413) = (   0.4702409   0.5560171   0.1144601  )
       414           Mo  tau( 414) = (   0.3575461   0.5896795   0.0763176  )
       415           S   tau( 415) = (   0.4024947   0.5922742   0.0384922  )
       416           S   tau( 416) = (   0.4018643   0.5912086   0.1147708  )
       417           Mo  tau( 417) = (   0.2890115   0.6249547   0.0760441  )
       418           S   tau( 418) = (   0.3341425   0.6272710   0.0384143  )
       419           S   tau( 419) = (   0.3332058   0.6263942   0.1147034  )
       420           Mo  tau( 420) = (   0.2204428   0.6605588   0.0755099  )
       421           S   tau( 421) = (   0.2656089   0.6624427   0.0379522  )
       422           S   tau( 422) = (   0.2645309   0.6618393   0.1142622  )
       423           Mo  tau( 423) = (   0.1519637   0.6966504   0.0749642  )
       424           S   tau( 424) = (   0.1970154   0.6980919   0.0373201  )
       425           S   tau( 425) = (   0.1960343   0.6976857   0.1136504  )
       426           Mo  tau( 426) = (   0.0836161   0.7332396   0.0746184  )
       427           S   tau( 427) = (   0.1284582   0.7343363   0.0367952  )
       428           S   tau( 428) = (   0.1277396   0.7340210   0.1131295  )
       429           Mo  tau( 429) = (   0.0153676   0.7701936   0.0745699  )
       430           S   tau( 430) = (   0.0599657   0.7711037   0.0365421  )
       431           S   tau( 431) = (   0.0596242   0.7708109   0.1128616  )
       432           Mo  tau( 432) = (  -0.0528438   0.8072833   0.0748312  )
       433           S   tau( 433) = (  -0.0084932   0.8081742   0.0365871  )
       434           S   tau( 434) = (  -0.0084245   0.8078821   0.1128906  )
       435           Mo  tau( 435) = (  -0.1210959   0.8442442   0.0754144  )
       436           S   tau( 436) = (  -0.0769802   0.8452711   0.0369286  )
       437           S   tau( 437) = (  -0.0764729   0.8450027   0.1132203  )
       438           Mo  tau( 438) = (   0.6934906   0.4889476   0.0751510  )
       439           Mo  tau( 439) = (   0.6264290   0.5249148   0.0756633  )
       440           S   tau( 440) = (   0.6705108   0.5272470   0.0373414  )
       441           S   tau( 441) = (   0.6707076   0.5266774   0.1136250  )
       442           Mo  tau( 442) = (   0.5590462   0.5605777   0.0763362  )
       443           S   tau( 443) = (   0.6032866   0.5632050   0.0380530  )
       444           S   tau( 444) = (   0.6033896   0.5622721   0.1143389  )
       445           Mo  tau( 445) = (   0.4912392   0.5959023   0.0769906  )
       446           S   tau( 446) = (   0.5357115   0.5987523   0.0388391  )
       447           S   tau( 447) = (   0.5356159   0.5975547   0.1151145  )
       448           Mo  tau( 448) = (   0.4230099   0.6309848   0.0773751  )
       449           S   tau( 449) = (   0.4677620   0.6338728   0.0394501  )
       450           S   tau( 450) = (   0.4673244   0.6326026   0.1157135  )
       451           Mo  tau( 451) = (   0.3544796   0.6660244   0.0773178  )
       452           S   tau( 452) = (   0.3994801   0.6687113   0.0396506  )
       453           S   tau( 453) = (   0.3986469   0.6676015   0.1159140  )
       454           Mo  tau( 454) = (   0.2858218   0.7013000   0.0768171  )
       455           S   tau( 455) = (   0.3309765   0.7035642   0.0393425  )
       456           S   tau( 456) = (   0.3298311   0.7027492   0.1156228  )
       457           Mo  tau( 457) = (   0.2171900   0.7370258   0.0760824  )
       458           S   tau( 458) = (   0.2623440   0.7387752   0.0386493  )
       459           S   tau( 459) = (   0.2611084   0.7382767   0.1149466  )
       460           Mo  tau( 460) = (   0.1486632   0.7733070   0.0754089  )
       461           S   tau( 461) = (   0.1936663   0.7745617   0.0378347  )
       462           S   tau( 462) = (   0.1926231   0.7742803   0.1141462  )
       463           Mo  tau( 463) = (   0.0802596   0.8100765   0.0749889  )
       464           S   tau( 464) = (   0.1250226   0.8109998   0.0371888  )
       465           S   tau( 465) = (   0.1243425   0.8108279   0.1134927  )
       466           Mo  tau( 466) = (   0.0119400   0.8471403   0.0748711  )
       467           S   tau( 467) = (   0.0564562   0.8478856   0.0368395  )
       468           S   tau( 468) = (   0.0561956   0.8477763   0.1131312  )
       469           Mo  tau( 469) = (   0.6239093   0.6023153   0.0766223  )
       470           Mo  tau( 470) = (   0.5561870   0.6376744   0.0775930  )
       471           S   tau( 471) = (   0.6003487   0.6405800   0.0392154  )
       472           S   tau( 472) = (   0.6006713   0.6394070   0.1154860  )
       473           Mo  tau( 473) = (   0.4880393   0.6726990   0.0783498  )
       474           S   tau( 474) = (   0.5324566   0.6757479   0.0401895  )
       475           S   tau( 475) = (   0.5324705   0.6744510   0.1164457  )
       476           Mo  tau( 476) = (   0.4195432   0.7075612   0.0786162  )
       477           S   tau( 477) = (   0.4642714   0.7105237   0.0407886  )
       478           S   tau( 478) = (   0.4637936   0.7093289   0.1170338  )
       479           Mo  tau( 479) = (   0.3508571   0.7425194   0.0782832  )
       480           S   tau( 480) = (   0.3958429   0.7451226   0.0407572  )
       481           S   tau( 481) = (   0.3948921   0.7442519   0.1170091  )
       482           Mo  tau( 482) = (   0.2821418   0.7778426   0.0774809  )
       483           S   tau( 483) = (   0.3272669   0.7799245   0.0401137  )
       484           S   tau( 484) = (   0.3259865   0.7794327   0.1163772  )
       485           Mo  tau( 485) = (   0.2135159   0.8136994   0.0765289  )
       486           S   tau( 486) = (   0.2585786   0.8152219   0.0391409  )
       487           S   tau( 487) = (   0.2573257   0.8150489   0.1154213  )
       488           Mo  tau( 488) = (   0.1450397   0.8501296   0.0756939  )
       489           S   tau( 489) = (   0.1899238   0.8511789   0.0381336  )
       490           S   tau( 490) = (   0.1889267   0.8512159   0.1144244  )
       491           Mo  tau( 491) = (   0.5527048   0.7147084   0.0789426  )
       492           Mo  tau( 492) = (   0.4842379   0.7495082   0.0796407  )
       493           S   tau( 493) = (   0.5285772   0.7525092   0.0414826  )
       494           S   tau( 494) = (   0.5287071   0.7515027   0.1177252  )
       495           Mo  tau( 495) = (   0.4155539   0.7842437   0.0796224  )
       496           S   tau( 496) = (   0.4602293   0.7870284   0.0418592  )
       497           S   tau( 497) = (   0.4597526   0.7863071   0.1180973  )
       498           Mo  tau( 498) = (   0.3468074   0.8191934   0.0789089  )
       499           S   tau( 499) = (   0.3917279   0.8215359   0.0414687  )
       500           S   tau( 500) = (   0.3907270   0.8212263   0.1177094  )
       501           Mo  tau( 501) = (   0.2781474   0.8545933   0.0777936  )
       502           S   tau( 502) = (   0.3231516   0.8563961   0.0404518  )
       503           S   tau( 503) = (   0.3219009   0.8564433   0.1167048  )
       504           Mo  tau( 504) = (   0.4800092   0.8263368   0.0804223  )
       505           Mo  tau( 505) = (   0.4112567   0.8610391   0.0800128  )
       506           S   tau( 506) = (   0.4558484   0.8634671   0.0422580  )
       507           S   tau( 507) = (   0.4554020   0.8634829   0.1184893  )

   Crystallographic axes

     site n.     atom                  positions (cryst. coord.)
         1           Mo  tau(   1) = (  0.0458294  0.0029255  0.1651984  )
         2           S   tau(   2) = (  0.0912188  0.0058403  0.0859846  )
         3           S   tau(   3) = (  0.0920517  0.0057801  0.2425880  )
         4           S   tau(   4) = (  0.0426734  0.0456295  0.0868036  )
         5           S   tau(   5) = (  0.0431289  0.0460668  0.2433932  )
         6           Mo  tau(   6) = (  0.1829796  0.0110346  0.1614885  )
         7           S   tau(   7) = (  0.2278396  0.0134015  0.0814477  )
         8           S   tau(   8) = (  0.2291211  0.0132091  0.2381032  )
         9           Mo  tau(   9) = (  0.1345434  0.0515112  0.1635929  )
        10           S   tau(  10) = (  0.1795589  0.0540524  0.0837853  )
        11           S   tau(  11) = (  0.1809385  0.0542645  0.2404034  )
        12           Mo  tau(  12) = (  0.0858633  0.0916230  0.1643572  )
        13           S   tau(  13) = (  0.1310781  0.0941178  0.0852110  )
        14           S   tau(  14) = (  0.1322404  0.0948289  0.2418237  )
        15           Mo  tau(  15) = (  0.0372283  0.1316638  0.1635552  )
        16           S   tau(  16) = (  0.0825849  0.1339590  0.0851823  )
        17           S   tau(  17) = (  0.0834070  0.1351387  0.2417911  )
        18           S   tau(  18) = (  0.0343528  0.1739613  0.0837209  )
        19           S   tau(  19) = (  0.0348008  0.1754147  0.2403526  )
        20           Mo  tau(  20) = (  0.3190977  0.0170965  0.1567667  )
        21           S   tau(  21) = (  0.3637498  0.0185866  0.0771907  )
        22           S   tau(  22) = (  0.3645906  0.0183710  0.2338939  )
        23           Mo  tau(  23) = (  0.2714025  0.0587127  0.1589391  )
        24           S   tau(  24) = (  0.3161016  0.0605471  0.0790683  )
        25           S   tau(  25) = (  0.3173320  0.0605319  0.2357550  )
        26           Mo  tau(  26) = (  0.2232350  0.0996584  0.1609411  )
        27           S   tau(  27) = (  0.2680677  0.1017974  0.0810360  )
        28           S   tau(  28) = (  0.2695344  0.1020932  0.2376913  )
        29           Mo  tau(  29) = (  0.1747267  0.1400698  0.1621588  )
        30           S   tau(  30) = (  0.2197145  0.1423155  0.0825548  )
        31           S   tau(  31) = (  0.2212120  0.1430781  0.2391953  )
        32           Mo  tau(  32) = (  0.1261530  0.1802320  0.1620897  )
        33           S   tau(  33) = (  0.1712878  0.1824088  0.0830935  )
        34           S   tau(  34) = (  0.1725657  0.1836322  0.2397276  )
        35           Mo  tau(  35) = (  0.0778356  0.2204500  0.1608044  )
        36           S   tau(  36) = (  0.1230216  0.2224444  0.0823989  )
        37           S   tau(  37) = (  0.1240180  0.2240087  0.2390547  )
        38           Mo  tau(  38) = (  0.0300486  0.2609920  0.1588213  )
        39           S   tau(  39) = (  0.0752252  0.2628214  0.0808149  )
        40           S   tau(  40) = (  0.0759002  0.2644374  0.2375049  )
        41           S   tau(  41) = (  0.0280115  0.3037034  0.0789082  )
        42           S   tau(  42) = (  0.0284420  0.3051463  0.2356164  )
        43           Mo  tau(  43) = (  0.4541666  0.0210466  0.1541495  )
        44           S   tau(  44) = (  0.4989031  0.0219184  0.0755693  )
        45           S   tau(  45) = (  0.4990237  0.0218360  0.2322621  )
        46           Mo  tau(  46) = (  0.4071327  0.0636515  0.1550787  )
        47           S   tau(  47) = (  0.4517826  0.0647236  0.0760183  )
        48           S   tau(  48) = (  0.4523339  0.0646999  0.2327144  )
        49           Mo  tau(  49) = (  0.3597404  0.1057437  0.1565304  )
        50           S   tau(  50) = (  0.4043989  0.1071372  0.0770153  )
        51           S   tau(  51) = (  0.4053714  0.1072196  0.2337124  )
        52           Mo  tau(  52) = (  0.3119123  0.1471969  0.1581493  )
        53           S   tau(  53) = (  0.3566838  0.1489421  0.0784234  )
        54           S   tau(  54) = (  0.3579677  0.1492263  0.2351167  )
        55           Mo  tau(  55) = (  0.2636780  0.1880275  0.1593866  )
        56           S   tau(  56) = (  0.3086214  0.1900237  0.0797808  )
        57           S   tau(  57) = (  0.3100042  0.1906196  0.2364609  )
        58           Mo  tau(  58) = (  0.2152512  0.2284539  0.1597988  )
        59           S   tau(  59) = (  0.2603228  0.2305117  0.0805536  )
        60           S   tau(  60) = (  0.2616773  0.2315115  0.2372240  )
        61           Mo  tau(  61) = (  0.1669448  0.2687715  0.1591563  )
        62           S   tau(  62) = (  0.2120889  0.2707538  0.0804008  )
        63           S   tau(  63) = (  0.2132418  0.2721065  0.2370912  )
        64           Mo  tau(  64) = (  0.1190728  0.3092834  0.1577927  )
        65           S   tau(  65) = (  0.1641870  0.3111249  0.0793909  )
        66           S   tau(  66) = (  0.1651347  0.3126482  0.2361161  )
        67           Mo  tau(  67) = (  0.0718051  0.3501717  0.1562048  )
        68           S   tau(  68) = (  0.1168514  0.3519306  0.0779589  )
        69           S   tau(  69) = (  0.1175810  0.3533569  0.2347102  )
        70           Mo  tau(  70) = (  0.0251517  0.3914815  0.1549114  )
        71           S   tau(  71) = (  0.0701483  0.3932638  0.0766647  )
        72           S   tau(  72) = (  0.0706653  0.3943556  0.2334051  )
        73           S   tau(  73) = (  0.0239660  0.4350044  0.0758563  )
        74           S   tau(  74) = (  0.0242759  0.4356667  0.2325699  )
        75           Mo  tau(  75) = (  0.5888023  0.0242163  0.1543703  )
        76           S   tau(  76) = (  0.6338943  0.0250840  0.0767042  )
        77           S   tau(  77) = (  0.6333686  0.0252160  0.2334013  )
        78           Mo  tau(  78) = (  0.5419588  0.0670400  0.1539076  )
        79           S   tau(  79) = (  0.5867713  0.0677923  0.0757484  )
        80           S   tau(  80) = (  0.5866835  0.0679482  0.2324409  )
        81           Mo  tau(  81) = (  0.4951110  0.1098095  0.1540232  )
        82           S   tau(  82) = (  0.5397996  0.1106474  0.0754185  )
        83           S   tau(  83) = (  0.5400866  0.1107996  0.2321176  )
        84           Mo  tau(  84) = (  0.4480389  0.1522427  0.1546707  )
        85           S   tau(  85) = (  0.4927481  0.1533376  0.0756491  )
        86           S   tau(  86) = (  0.4933640  0.1534877  0.2323632  )
        87           Mo  tau(  87) = (  0.4005898  0.1941327  0.1557144  )
        88           S   tau(  88) = (  0.4454151  0.1955863  0.0763614  )
        89           S   tau(  89) = (  0.4463079  0.1957979  0.2330827  )
        90           Mo  tau(  90) = (  0.3527015  0.2353985  0.1568050  )
        91           S   tau(  91) = (  0.3976897  0.2371817  0.0773542  )
        92           S   tau(  92) = (  0.3987683  0.2375446  0.2340625  )
        93           Mo  tau(  93) = (  0.3045071  0.2761645  0.1573926  )
        94           S   tau(  94) = (  0.3496678  0.2781220  0.0781659  )
        95           S   tau(  95) = (  0.3507450  0.2787637  0.2348678  )
        96           Mo  tau(  96) = (  0.2562726  0.3166955  0.1572007  )
        97           S   tau(  97) = (  0.3015034  0.3186487  0.0783316  )
        98           S   tau(  98) = (  0.3025219  0.3196245  0.2350434  )
        99           Mo  tau(  99) = (  0.2083309  0.3572889  0.1562837  )
       100           S   tau( 100) = (  0.2535260  0.3591412  0.0777176  )
       101           S   tau( 101) = (  0.2544068  0.3603469  0.2344718  )
       102           Mo  tau( 102) = (  0.1609299  0.3981844  0.1551076  )
       103           S   tau( 103) = (  0.2060270  0.3999419  0.0766606  )
       104           S   tau( 104) = (  0.2067736  0.4011576  0.2334535  )
       105           Mo  tau( 105) = (  0.1141316  0.4394685  0.1541624  )
       106           S   tau( 106) = (  0.1591199  0.4412189  0.0756851  )
       107           S   tau( 107) = (  0.1597502  0.4422292  0.2324824  )
       108           Mo  tau( 108) = (  0.0678305  0.4810730  0.1537136  )
       109           S   tau( 109) = (  0.1127734  0.4829390  0.0751499  )
       110           S   tau( 110) = (  0.1132736  0.4835898  0.2319237  )
       111           Mo  tau( 111) = (  0.0218076  0.5228454  0.1537956  )
       112           S   tau( 112) = (  0.0668018  0.5249093  0.0751549  )
       113           S   tau( 113) = (  0.0671391  0.5251466  0.2318927  )
       114           S   tau( 114) = (  0.0209470  0.5669313  0.0756734  )
       115           S   tau( 115) = (  0.0210733  0.5667339  0.2323870  )
       116           Mo  tau( 116) = (  0.7238365  0.0283447  0.1573926  )
       117           S   tau( 117) = (  0.7694892  0.0298132  0.0805536  )
       118           S   tau( 118) = (  0.7684894  0.0301678  0.2372240  )
       119           Mo  tau( 119) = (  0.6766296  0.0705122  0.1554226  )
       120           S   tau( 120) = (  0.7218790  0.0715478  0.0781659  )
       121           S   tau( 121) = (  0.7212372  0.0719834  0.2348677  )
       122           Mo  tau( 122) = (  0.6297889  0.1131047  0.1541384  )
       123           S   tau( 123) = (  0.6747280  0.1139081  0.0763641  )
       124           S   tau( 124) = (  0.6744605  0.1143340  0.2330725  )
       125           Mo  tau( 125) = (  0.5831012  0.1558465  0.1535509  )
       126           S   tau( 126) = (  0.6278871  0.1566366  0.0753330  )
       127           S   tau( 127) = (  0.6279345  0.1569581  0.2320437  )
       128           Mo  tau( 128) = (  0.5363306  0.1984343  0.1535531  )
       129           S   tau( 129) = (  0.5811194  0.1994211  0.0749478  )
       130           S   tau( 130) = (  0.5814177  0.1996362  0.2316710  )
       131           Mo  tau( 131) = (  0.4892705  0.2406299  0.1540404  )
       132           S   tau( 132) = (  0.5341779  0.2419175  0.0751142  )
       133           S   tau( 133) = (  0.5346741  0.2420530  0.2318471  )
       134           Mo  tau( 134) = (  0.4417801  0.2822682  0.1547921  )
       135           S   tau( 135) = (  0.4868923  0.2839193  0.0756938  )
       136           S   tau( 136) = (  0.4875189  0.2840551  0.2324180  )
       137           Mo  tau( 137) = (  0.3938815  0.3233713  0.1554226  )
       138           S   tau( 138) = (  0.4391789  0.3252730  0.0763642  )
       139           S   tau( 139) = (  0.4398723  0.3255404  0.2330725  )
       140           Mo  tau( 140) = (  0.3457818  0.3641387  0.1554857  )
       141           S   tau( 141) = (  0.3911885  0.3661066  0.0767042  )
       142           S   tau( 142) = (  0.3918463  0.3666323  0.2334013  )
       143           Mo  tau( 143) = (  0.2978047  0.4048687  0.1549002  )
       144           S   tau( 144) = (  0.3432072  0.4067474  0.0763908  )
       145           S   tau( 145) = (  0.3437881  0.4075268  0.2331295  )
       146           Mo  tau( 146) = (  0.2502465  0.4458260  0.1539866  )
       147           S   tau( 147) = (  0.2955099  0.4475735  0.0755824  )
       148           S   tau( 148) = (  0.2960465  0.4484741  0.2323834  )
       149           Mo  tau( 149) = (  0.2032557  0.4871520  0.1532092  )
       150           S   tau( 150) = (  0.2483466  0.4888343  0.0747340  )
       151           S   tau( 151) = (  0.2488572  0.4896427  0.2315750  )
       152           Mo  tau( 152) = (  0.1567894  0.5288253  0.1529038  )
       153           S   tau( 153) = (  0.2017542  0.5305637  0.0742547  )
       154           S   tau( 154) = (  0.2022344  0.5311102  0.2310969  )
       155           Mo  tau( 155) = (  0.1106580  0.5706983  0.1531769  )
       156           S   tau( 156) = (  0.1555833  0.5726075  0.0743521  )
       157           S   tau( 157) = (  0.1560118  0.5728165  0.2311637  )
       158           Mo  tau( 158) = (  0.0646052  0.6125638  0.1540375  )
       159           S   tau( 159) = (  0.1096071  0.6147708  0.0750625  )
       160           S   tau( 160) = (  0.1099452  0.6145984  0.2318331  )
       161           Mo  tau( 161) = (  0.0183559  0.6542192  0.1554857  )
       162           S   tau( 162) = (  0.0635391  0.6567937  0.0763908  )
       163           S   tau( 163) = (  0.0637376  0.6562129  0.2331295  )
       164           S   tau( 164) = (  0.0171443  0.6984976  0.0783316  )
       165           S   tau( 165) = (  0.0171015  0.6974790  0.2350434  )
       166           Mo  tau( 166) = (  0.8599311  0.0346590  0.1621588  )
       167           S   tau( 167) = (  0.9058831  0.0369624  0.0852109  )
       168           S   tau( 168) = (  0.9051720  0.0374136  0.2418236  )
       169           Mo  tau( 169) = (  0.8119734  0.0756525  0.1593866  )
       170           S   tau( 170) = (  0.8576854  0.0774011  0.0825547  )
       171           S   tau( 171) = (  0.8569228  0.0781359  0.2391953  )
       172           Mo  tau( 172) = (  0.7646024  0.1173051  0.1568049  )
       173           S   tau( 173) = (  0.8099772  0.1185997  0.0797808  )
       174           S   tau( 174) = (  0.8093813  0.1193867  0.2364609  )
       175           Mo  tau( 175) = (  0.7177328  0.1595140  0.1547920  )
       176           S   tau( 176) = (  0.7628192  0.1605100  0.0773541  )
       177           S   tau( 177) = (  0.7624563  0.1612257  0.2340625  )
       178           Mo  tau( 178) = (  0.6711669  0.2020388  0.1535936  )
       179           S   tau( 179) = (  0.7160817  0.2029751  0.0756938  )
       180           S   tau( 180) = (  0.7159458  0.2034658  0.2324180  )
       181           Mo  tau( 181) = (  0.6246618  0.2446085  0.1530776  )
       182           S   tau( 182) = (  0.6695580  0.2456393  0.0748061  )
       183           S   tau( 183) = (  0.6695958  0.2459256  0.2315401  )
       184           Mo  tau( 184) = (  0.5779571  0.2869358  0.1531327  )
       185           S   tau( 185) = (  0.6229619  0.2882178  0.0745534  )
       186           S   tau( 186) = (  0.6231266  0.2883113  0.2312935  )
       187           Mo  tau( 187) = (  0.5308708  0.3288340  0.1535936  )
       188           S   tau( 188) = (  0.5760802  0.3304429  0.0748061  )
       189           S   tau( 189) = (  0.5763287  0.3304052  0.2315401  )
       190           Mo  tau( 190) = (  0.4833147  0.3702121  0.1541384  )
       191           S   tau( 191) = (  0.5287484  0.3721139  0.0753330  )
       192           S   tau( 192) = (  0.5290224  0.3720664  0.2320438  )
       193           Mo  tau( 193) = (  0.4354129  0.4111987  0.1543703  )
       194           S   tau( 194) = (  0.4810199  0.4132297  0.0757484  )
       195           S   tau( 195) = (  0.4812636  0.4133174  0.2324409  )
       196           Mo  tau( 196) = (  0.3874372  0.4520434  0.1540374  )
       197           S   tau( 197) = (  0.4330697  0.4540177  0.0756734  )
       198           S   tau( 198) = (  0.4332671  0.4543414  0.2323869  )
       199           Mo  tau( 199) = (  0.3397188  0.4930487  0.1532764  )
       200           S   tau( 200) = (  0.3852301  0.4948383  0.0750625  )
       201           S   tau( 201) = (  0.3854026  0.4953489  0.2318331  )
       202           Mo  tau( 202) = (  0.2924898  0.5344133  0.1525039  )
       203           S   tau( 203) = (  0.3377948  0.5360449  0.0742280  )
       204           S   tau( 204) = (  0.3379826  0.5365807  0.2310676  )
       205           Mo  tau( 205) = (  0.2457857  0.5761635  0.1521321  )
       206           S   tau( 206) = (  0.2908797  0.5777569  0.0736232  )
       207           S   tau( 207) = (  0.2911181  0.5781339  0.2305018  )
       208           Mo  tau( 208) = (  0.1994751  0.6181884  0.1523683  )
       209           S   tau( 209) = (  0.2444258  0.6198663  0.0735851  )
       210           S   tau( 210) = (  0.2447251  0.6199894  0.2304607  )
       211           Mo  tau( 211) = (  0.1533288  0.6602821  0.1532765  )
       212           S   tau( 212) = (  0.1982490  0.6622062  0.0742280  )
       213           S   tau( 213) = (  0.1985969  0.6620183  0.2310676  )
       214           Mo  tau( 214) = (  0.1070629  0.7021963  0.1549002  )
       215           S   tau( 215) = (  0.1520625  0.7044911  0.0755824  )
       216           S   tau( 216) = (  0.1524265  0.7039545  0.2323835  )
       217           Mo  tau( 217) = (  0.0604219  0.7437284  0.1572008  )
       218           S   tau( 218) = (  0.1056141  0.7464750  0.0777176  )
       219           S   tau( 219) = (  0.1059391  0.7455942  0.2344719  )
       220           Mo  tau( 220) = (  0.0132016  0.7847498  0.1597988  )
       221           S   tau( 221) = (  0.0586638  0.7879121  0.0804009  )
       222           S   tau( 222) = (  0.0588636  0.7867591  0.2370912  )
       223           S   tau( 223) = (  0.0111199  0.8287131  0.0830936  )
       224           S   tau( 224) = (  0.0110654  0.8274352  0.2397277  )
       225           Mo  tau( 225) = (  0.9970754  0.0429059  0.1651984  )
       226           Mo  tau( 226) = (  0.9484897  0.0830342  0.1635928  )
       227           S   tau( 227) = (  0.9941606  0.0853806  0.0859846  )
       228           S   tau( 228) = (  0.9942209  0.0862738  0.2425879  )
       229           Mo  tau( 229) = (  0.9003425  0.1235787  0.1609411  )
       230           S   tau( 230) = (  0.9459485  0.1255085  0.0837852  )
       231           S   tau( 231) = (  0.9457365  0.1266761  0.2404034  )
       232           Mo  tau( 232) = (  0.8528041  0.1647175  0.1581492  )
       233           S   tau( 233) = (  0.8982035  0.1662723  0.0810359  )
       234           S   tau( 234) = (  0.8979078  0.1674432  0.2376913  )
       235           Mo  tau( 235) = (  0.8058683  0.2064592  0.1557143  )
       236           S   tau( 236) = (  0.8510589  0.2077438  0.0784233  )
       237           S   tau( 237) = (  0.8507747  0.2087435  0.2351167  )
       238           Mo  tau( 238) = (  0.7593710  0.2486426  0.1540403  )
       239           S   tau( 239) = (  0.8044147  0.2498309  0.0763614  )
       240           S   tau( 240) = (  0.8042031  0.2505121  0.2330826  )
       241           Mo  tau( 241) = (  0.7130652  0.2910234  0.1531327  )
       242           S   tau( 242) = (  0.7580835  0.2922624  0.0751141  )
       243           S   tau( 243) = (  0.7579480  0.2926231  0.2318471  )
       244           Mo  tau( 244) = (  0.6666666  0.3333343  0.1528571  )
       245           S   tau( 245) = (  0.7117832  0.3347461  0.0745534  )
       246           S   tau( 246) = (  0.7116897  0.3348174  0.2312935  )
       247           Mo  tau( 247) = (  0.6199456  0.3753392  0.1530776  )
       248           S   tau( 248) = (  0.6652549  0.3770391  0.0745534  )
       249           S   tau( 249) = (  0.6651836  0.3768744  0.2312935  )
       250           Mo  tau( 250) = (  0.5727442  0.4168998  0.1535509  )
       251           S   tau( 251) = (  0.6183006  0.4188815  0.0749478  )
       252           S   tau( 252) = (  0.6182175  0.4185833  0.2316710  )
       253           Mo  tau( 253) = (  0.5250801  0.4580422  0.1539076  )
       254           S   tau( 254) = (  0.5708466  0.4602013  0.0754185  )
       255           S   tau( 255) = (  0.5707118  0.4599144  0.2321176  )
       256           Mo  tau( 256) = (  0.4771556  0.4989643  0.1537955  )
       257           S   tau( 257) = (  0.5230142  0.5010979  0.0755693  )
       258           S   tau( 258) = (  0.5228112  0.5009772  0.2322621  )
       259           Mo  tau( 259) = (  0.4293027  0.5399618  0.1531768  )
       260           S   tau( 260) = (  0.4750916  0.5418946  0.0751549  )
       261           S   tau( 261) = (  0.4748544  0.5419945  0.2318927  )
       262           Mo  tau( 262) = (  0.3818126  0.5812888  0.1523682  )
       263           S   tau( 263) = (  0.4273935  0.5829779  0.0743521  )
       264           S   tau( 264) = (  0.4271845  0.5831974  0.2311637  )
       265           Mo  tau( 265) = (  0.3348123  0.6230549  0.1518050  )
       266           S   tau( 266) = (  0.3801347  0.6245616  0.0735851  )
       267           S   tau( 267) = (  0.3800116  0.6247377  0.2304607  )
       268           Mo  tau( 268) = (  0.2882415  0.6651887  0.1518050  )
       269           S   tau( 269) = (  0.3333333  0.6666677  0.0732739  )
       270           S   tau( 270) = (  0.3333333  0.6666677  0.2301683  )
       271           Mo  tau( 271) = (  0.2419224  0.7075112  0.1525039  )
       272           S   tau( 272) = (  0.2868761  0.7091212  0.0736232  )
       273           S   tau( 273) = (  0.2870147  0.7088828  0.2305018  )
       274           Mo  tau( 274) = (  0.1955784  0.7497545  0.1539867  )
       275           S   tau( 275) = (  0.2404867  0.7516545  0.0747341  )
       276           S   tau( 276) = (  0.2407845  0.7511438  0.2315750  )
       277           Mo  tau( 277) = (  0.1489569  0.7916701  0.1562837  )
       278           S   tau( 278) = (  0.1939139  0.7939739  0.0766607  )
       279           S   tau( 279) = (  0.1943829  0.7932274  0.2334535  )
       280           Mo  tau( 280) = (  0.1018256  0.8330562  0.1591564  )
       281           S   tau( 281) = (  0.1469368  0.8358140  0.0793910  )
       282           S   tau( 282) = (  0.1475124  0.8348662  0.2361162  )
       283           Mo  tau( 283) = (  0.0540779  0.8738480  0.1620898  )
       284           S   tau( 284) = (  0.0994217  0.8769793  0.0823990  )
       285           S   tau( 285) = (  0.0999896  0.8759829  0.2390548  )
       286           Mo  tau( 286) = (  0.0057586  0.9141376  0.1643572  )
       287           S   tau( 287) = (  0.0513729  0.9174160  0.0851824  )
       288           S   tau( 288) = (  0.0517304  0.9165939  0.2417912  )
       289           S   tau( 289) = (  0.0029550  0.9573276  0.0868037  )
       290           S   tau( 290) = (  0.0029368  0.9568720  0.2433932  )
       291           Mo  tau( 291) = (  0.9889663  0.1719470  0.1614884  )
       292           Mo  tau( 292) = (  0.9412882  0.2126918  0.1589390  )
       293           S   tau( 293) = (  0.9865994  0.2144401  0.0814476  )
       294           S   tau( 294) = (  0.9867919  0.2159141  0.2381031  )
       295           Mo  tau( 295) = (  0.8942573  0.2539988  0.1565304  )
       296           S   tau( 296) = (  0.9394538  0.2555565  0.0790682  )
       297           S   tau( 297) = (  0.9394691  0.2568022  0.2357549  )
       298           Mo  tau( 298) = (  0.8477583  0.2957983  0.1546707  )
       299           S   tau( 299) = (  0.8928638  0.2972637  0.0770152  )
       300           S   tau( 300) = (  0.8927814  0.2981540  0.2337124  )
       301           Mo  tau( 301) = (  0.8015667  0.3378983  0.1535531  )
       302           S   tau( 302) = (  0.8466633  0.3394126  0.0756491  )
       303           S   tau( 303) = (  0.8465133  0.3398784  0.2323632  )
       304           Mo  tau( 304) = (  0.7553925  0.3800554  0.1530776  )
       305           S   tau( 305) = (  0.8005799  0.3817004  0.0749478  )
       306           S   tau( 306) = (  0.8003647  0.3817835  0.2316709  )
       307           Mo  tau( 307) = (  0.7089776  0.4220439  0.1531327  )
       308           S   tau( 308) = (  0.7543617  0.4239208  0.0748061  )
       309           S   tau( 309) = (  0.7540754  0.4236723  0.2315401  )
       310           Mo  tau( 310) = (  0.6621026  0.4636704  0.1535531  )
       311           S   tau( 311) = (  0.7077385  0.4658231  0.0751142  )
       312           S   tau( 312) = (  0.7073778  0.4653269  0.2318471  )
       313           Mo  tau( 313) = (  0.6146973  0.5048899  0.1540232  )
       314           S   tau( 314) = (  0.6605884  0.5072528  0.0756491  )
       315           S   tau( 315) = (  0.6601226  0.5066369  0.2323632  )
       316           Mo  tau( 316) = (  0.5668788  0.5458343  0.1541495  )
       317           S   tau( 317) = (  0.6129398  0.5482183  0.0760183  )
       318           S   tau( 318) = (  0.6123649  0.5476671  0.2327144  )
       319           Mo  tau( 319) = (  0.5189280  0.5867595  0.1537136  )
       320           S   tau( 320) = (  0.5649965  0.5889636  0.0758563  )
       321           S   tau( 321) = (  0.5643343  0.5886113  0.2325699  )
       322           Mo  tau( 322) = (  0.4711756  0.6279661  0.1529038  )
       323           S   tau( 323) = (  0.5170620  0.6298365  0.0751499  )
       324           S   tau( 324) = (  0.5164111  0.6296859  0.2319237  )
       325           Mo  tau( 325) = (  0.4238374  0.6696242  0.1521321  )
       326           S   tau( 326) = (  0.4694373  0.6711926  0.0742547  )
       327           S   tau( 327) = (  0.4688907  0.6711262  0.2310969  )
       328           Mo  tau( 328) = (  0.3769461  0.7117595  0.1518050  )
       329           S   tau( 329) = (  0.4222441  0.7131249  0.0736232  )
       330           S   tau( 330) = (  0.4218670  0.7129862  0.2305018  )
       331           Mo  tau( 331) = (  0.3303768  0.7542153  0.1521321  )
       332           S   tau( 332) = (  0.3754394  0.7555752  0.0735851  )
       333           S   tau( 333) = (  0.3752632  0.7552759  0.2304607  )
       334           Mo  tau( 334) = (  0.2838952  0.7967453  0.1532093  )
       335           S   tau( 335) = (  0.3288084  0.7982468  0.0742547  )
       336           S   tau( 336) = (  0.3288748  0.7977666  0.2310969  )
       337           Mo  tau( 337) = (  0.2372534  0.8390711  0.1551077  )
       338           S   tau( 338) = (  0.2820979  0.8408811  0.0756851  )
       339           S   tau( 339) = (  0.2824778  0.8402507  0.2324824  )
       340           Mo  tau( 340) = (  0.1902095  0.8809281  0.1577928  )
       341           S   tau( 341) = (  0.2350780  0.8831496  0.0779590  )
       342           S   tau( 342) = (  0.2357748  0.8824199  0.2347103  )
       343           Mo  tau( 343) = (  0.1426134  0.9221653  0.1608044  )
       344           S   tau( 344) = (  0.1875951  0.9247756  0.0808148  )
       345           S   tau( 345) = (  0.1885361  0.9241007  0.2375050  )
       346           Mo  tau( 346) = (  0.0944343  0.9627726  0.1635552  )
       347           S   tau( 347) = (  0.1396074  0.9656481  0.0837209  )
       348           S   tau( 348) = (  0.1406128  0.9652001  0.2403526  )
       349           Mo  tau( 349) = (  0.9829044  0.3020032  0.1567666  )
       350           Mo  tau( 350) = (  0.9363495  0.3434833  0.1550786  )
       351           S   tau( 351) = (  0.9814143  0.3451653  0.0771906  )
       352           S   tau( 352) = (  0.9816299  0.3462216  0.2338939  )
       353           Mo  tau( 353) = (  0.8901915  0.3853036  0.1540232  )
       354           S   tau( 354) = (  0.9352774  0.3870611  0.0760183  )
       355           S   tau( 355) = (  0.9353011  0.3876360  0.2327144  )
       356           Mo  tau( 356) = (  0.8441545  0.4272568  0.1535509  )
       357           S   tau( 357) = (  0.8893536  0.4291544  0.0754185  )
       358           S   tau( 358) = (  0.8892014  0.4292891  0.2321176  )
       359           Mo  tau( 359) = (  0.7979622  0.4691302  0.1535936  )
       360           S   tau( 360) = (  0.8433644  0.4712525  0.0753330  )
       361           S   tau( 361) = (  0.8430429  0.4709785  0.2320437  )
       362           Mo  tau( 362) = (  0.7513584  0.5107305  0.1540404  )
       363           S   tau( 363) = (  0.7970259  0.5131087  0.0756938  )
       364           S   tau( 364) = (  0.7965351  0.5124820  0.2324180  )
       365           Mo  tau( 365) = (  0.7042027  0.5519621  0.1546708  )
       366           S   tau( 366) = (  0.7501701  0.5545858  0.0763614  )
       367           S   tau( 367) = (  0.7494889  0.5536930  0.2330826  )
       368           Mo  tau( 368) = (  0.6565177  0.5928682  0.1550787  )
       369           S   tau( 369) = (  0.7027372  0.5956021  0.0770153  )
       370           S   tau( 370) = (  0.7018470  0.5946295  0.2337125  )
       371           Mo  tau( 371) = (  0.6085194  0.6336723  0.1549114  )
       372           S   tau( 372) = (  0.6548357  0.6362511  0.0771906  )
       373           S   tau( 373) = (  0.6537793  0.6354103  0.2338939  )
       374           Mo  tau( 374) = (  0.5605325  0.6746651  0.1541625  )
       375           S   tau( 375) = (  0.6067371  0.6768866  0.0766647  )
       376           S   tau( 376) = (  0.6056454  0.6763118  0.2334052  )
       377           Mo  tau( 377) = (  0.5128490  0.7161057  0.1532092  )
       378           S   tau( 378) = (  0.5587821  0.7179030  0.0756851  )
       379           S   tau( 379) = (  0.5577718  0.7175231  0.2324824  )
       380           Mo  tau( 380) = (  0.4655877  0.7580786  0.1525039  )
       381           S   tau( 381) = (  0.5111667  0.7595143  0.0747340  )
       382           S   tau( 382) = (  0.5103582  0.7592165  0.2315750  )
       383           Mo  tau( 383) = (  0.4187122  0.8005259  0.1523682  )
       384           S   tau( 384) = (  0.4639561  0.8017520  0.0742280  )
       385           S   tau( 385) = (  0.4634203  0.8014040  0.2310676  )
       386           Mo  tau( 386) = (  0.3720348  0.8432116  0.1529038  )
       387           S   tau( 387) = (  0.4170231  0.8444176  0.0743521  )
       388           S   tau( 388) = (  0.4168036  0.8439892  0.2311637  )
       389           Mo  tau( 389) = (  0.3253358  0.8858694  0.1541625  )
       390           S   tau( 390) = (  0.3701644  0.8872276  0.0751499  )
       391           S   tau( 391) = (  0.3703151  0.8867274  0.2319237  )
       392           Mo  tau( 392) = (  0.2783655  0.9281958  0.1562049  )
       393           S   tau( 393) = (  0.3231144  0.9298527  0.0766647  )
       394           S   tau( 394) = (  0.3236892  0.9293357  0.2334052  )
       395           Mo  tau( 395) = (  0.2309423  0.9699523  0.1588213  )
       396           S   tau( 396) = (  0.2756908  0.9719895  0.0789083  )
       397           S   tau( 397) = (  0.2767032  0.9715590  0.2356164  )
       398           Mo  tau( 398) = (  0.9789544  0.4331221  0.1541495  )
       399           Mo  tau( 399) = (  0.9329610  0.4749208  0.1539076  )
       400           S   tau( 400) = (  0.9780826  0.4769868  0.0755693  )
       401           S   tau( 401) = (  0.9781650  0.4771898  0.2322621  )
       402           Mo  tau( 402) = (  0.8868963  0.5166862  0.1541384  )
       403           S   tau( 403) = (  0.9322087  0.5189811  0.0757484  )
       404           S   tau( 404) = (  0.9320528  0.5187374  0.2324409  )
       405           Mo  tau( 405) = (  0.8404870  0.5582209  0.1547921  )
       406           S   tau( 406) = (  0.8860929  0.5608220  0.0763642  )
       407           S   tau( 407) = (  0.8856670  0.5601286  0.2330725  )
       408           Mo  tau( 408) = (  0.7935418  0.5994111  0.1557144  )
       409           S   tau( 409) = (  0.8394910  0.6023113  0.0773542  )
       410           S   tau( 410) = (  0.8387753  0.6012327  0.2340625  )
       411           Mo  tau( 411) = (  0.7460022  0.6402606  0.1565305  )
       412           S   tau( 412) = (  0.7922571  0.6433171  0.0784234  )
       413           S   tau( 413) = (  0.7912575  0.6420333  0.2351167  )
       414           Mo  tau( 414) = (  0.6979977  0.6809033  0.1567667  )
       415           S   tau( 415) = (  0.7444444  0.6838993  0.0790682  )
       416           S   tau( 416) = (  0.7431987  0.6826689  0.2357550  )
       417           Mo  tau( 417) = (  0.6498292  0.7216355  0.1562049  )
       418           S   tau( 418) = (  0.6962976  0.7243102  0.0789082  )
       419           S   tau( 419) = (  0.6948546  0.7232977  0.2356164  )
       420           Mo  tau( 420) = (  0.6018166  0.7627476  0.1551076  )
       421           S   tau( 421) = (  0.6480704  0.7649229  0.0779589  )
       422           S   tau( 422) = (  0.6466440  0.7642262  0.2347102  )
       423           Mo  tau( 423) = (  0.5541749  0.8044226  0.1539866  )
       424           S   tau( 424) = (  0.6000590  0.8060871  0.0766607  )
       425           S   tau( 425) = (  0.5988433  0.8056180  0.2334535  )
       426           Mo  tau( 426) = (  0.5069522  0.8466722  0.1532765  )
       427           S   tau( 427) = (  0.5524275  0.8479385  0.0755824  )
       428           S   tau( 428) = (  0.5515269  0.8475745  0.2323834  )
       429           Mo  tau( 429) = (  0.4600391  0.8893429  0.1531769  )
       430           S   tau( 430) = (  0.5051626  0.8903939  0.0750625  )
       431           S   tau( 431) = (  0.5046521  0.8900558  0.2318331  )
       432           Mo  tau( 432) = (  0.4132414  0.9321705  0.1537136  )
       433           S   tau( 433) = (  0.4581064  0.9331992  0.0751549  )
       434           S   tau( 434) = (  0.4580064  0.9328619  0.2318927  )
       435           Mo  tau( 435) = (  0.3663287  0.9748492  0.1549114  )
       436           S   tau( 436) = (  0.4110373  0.9760350  0.0758563  )
       437           S   tau( 437) = (  0.4113896  0.9757251  0.2325700  )
       438           Mo  tau( 438) = (  0.9757846  0.5645880  0.1543703  )
       439           Mo  tau( 439) = (  0.9294887  0.6061194  0.1554226  )
       440           S   tau( 440) = (  0.9749170  0.6088124  0.0767042  )
       441           S   tau( 441) = (  0.9747850  0.6081547  0.2334013  )
       442           Mo  tau( 442) = (  0.8826959  0.6472994  0.1568050  )
       443           S   tau( 443) = (  0.9284531  0.6503332  0.0781660  )
       444           S   tau( 444) = (  0.9280176  0.6492559  0.2348678  )
       445           Mo  tau( 445) = (  0.8352835  0.6880887  0.1581493  )
       446           S   tau( 446) = (  0.8814013  0.6913796  0.0797809  )
       447           S   tau( 447) = (  0.8806143  0.6899967  0.2364610  )
       448           Mo  tau( 448) = (  0.7873091  0.7285984  0.1589391  )
       449           S   tau( 449) = (  0.8337286  0.7319333  0.0810360  )
       450           S   tau( 450) = (  0.8325577  0.7304666  0.2376913  )
       451           Mo  tau( 451) = (  0.7390089  0.7690587  0.1588213  )
       452           S   tau( 452) = (  0.7855608  0.7721613  0.0814476  )
       453           S   tau( 453) = (  0.7840868  0.7708799  0.2381032  )
       454           Mo  tau( 454) = (  0.6907176  0.8097915  0.1577927  )
       455           S   tau( 455) = (  0.7371795  0.8124059  0.0808149  )
       456           S   tau( 456) = (  0.7355635  0.8114649  0.2375049  )
       457           Mo  tau( 457) = (  0.6427121  0.8510441  0.1562837  )
       458           S   tau( 458) = (  0.6888760  0.8530641  0.0793910  )
       459           S   tau( 459) = (  0.6873527  0.8524885  0.2361161  )
       460           Mo  tau( 460) = (  0.5951322  0.8929380  0.1549002  )
       461           S   tau( 461) = (  0.6408597  0.8943868  0.0777176  )
       462           S   tau( 462) = (  0.6396540  0.8940619  0.2344718  )
       463           Mo  tau( 463) = (  0.5479575  0.9353958  0.1540374  )
       464           S   tau( 464) = (  0.5932536  0.9364619  0.0763908  )
       465           S   tau( 465) = (  0.5924742  0.9362634  0.2331295  )
       466           Mo  tau( 466) = (  0.5010367  0.9781934  0.1537956  )
[...]
     atom  296 type  2   force =     0.00000780   -0.00000201   -0.00000158
     atom  297 type  2   force =     0.00000783   -0.00000294    0.00000237
     atom  298 type  1   force =     0.00002443   -0.00000184    0.00000148
     atom  299 type  2   force =     0.00000661   -0.00000118   -0.00000134
     atom  300 type  2   force =     0.00001015   -0.00000067   -0.00000130
     atom  301 type  1   force =     0.00002119    0.00000455   -0.00000609
     atom  302 type  2   force =     0.00001020    0.00000072   -0.00000056
     atom  303 type  2   force =     0.00000988    0.00000150   -0.00000009
     atom  304 type  1   force =     0.00000594    0.00000913   -0.00001013
     atom  305 type  2   force =     0.00000924    0.00000408    0.00000090
     atom  306 type  2   force =     0.00000830    0.00000425    0.00000107
     atom  307 type  1   force =    -0.00000048    0.00001223   -0.00000122
     atom  308 type  2   force =     0.00000532    0.00000726    0.00000296
     atom  309 type  2   force =     0.00000481    0.00000690   -0.00000074
     atom  310 type  1   force =    -0.00001530    0.00001491   -0.00000600
     atom  311 type  2   force =    -0.00000226    0.00000953    0.00000152
     atom  312 type  2   force =    -0.00000181    0.00000746   -0.00000055
     atom  313 type  1   force =    -0.00001797    0.00001340   -0.00000788
     atom  314 type  2   force =    -0.00000585    0.00000848   -0.00000068
     atom  315 type  2   force =    -0.00000647    0.00000755   -0.00000006
     atom  316 type  1   force =    -0.00001963    0.00001190   -0.00000271
     atom  317 type  2   force =    -0.00000695    0.00000443   -0.00000071
     atom  318 type  2   force =    -0.00000819    0.00000571    0.00000038
     atom  319 type  1   force =    -0.00000876    0.00000869   -0.00000402
     atom  320 type  2   force =    -0.00000474    0.00000366    0.00000017
     atom  321 type  2   force =    -0.00000690    0.00000317    0.00000363
     atom  322 type  1   force =    -0.00001128    0.00000078   -0.00000810
     atom  323 type  2   force =    -0.00000374    0.00000214    0.00000110
     atom  324 type  2   force =    -0.00000358    0.00000074    0.00000392
     atom  325 type  1   force =     0.00000256   -0.00000099    0.00000206
     atom  326 type  2   force =    -0.00000268   -0.00000096   -0.00000044
     atom  327 type  2   force =     0.00000139   -0.00000119    0.00000246
     atom  328 type  1   force =     0.00000200   -0.00000029   -0.00000458
     atom  329 type  2   force =    -0.00000001   -0.00000021   -0.00000407
     atom  330 type  2   force =     0.00000145   -0.00000018   -0.00000307
     atom  331 type  1   force =     0.00000030    0.00000228    0.00000091
     atom  332 type  2   force =     0.00000057   -0.00000138   -0.00000477
     atom  333 type  2   force =     0.00000057    0.00000257   -0.00000257
     atom  334 type  1   force =     0.00000667    0.00000361   -0.00000082
     atom  335 type  2   force =     0.00000281   -0.00000180   -0.00000050
     atom  336 type  2   force =     0.00000099    0.00000156    0.00000239
     atom  337 type  1   force =     0.00000240    0.00000083    0.00000678
     atom  338 type  2   force =     0.00000202   -0.00000122    0.00000156
     atom  339 type  2   force =     0.00000013   -0.00000094    0.00000279
     atom  340 type  1   force =    -0.00000279    0.00000148   -0.00000484
     atom  341 type  2   force =    -0.00000128   -0.00000004    0.00000243
     atom  342 type  2   force =    -0.00000034   -0.00000056    0.00000444
     atom  343 type  1   force =    -0.00001402    0.00000482   -0.00000662
     atom  344 type  2   force =    -0.00000418    0.00000127    0.00000057
     atom  345 type  2   force =    -0.00000405   -0.00000129   -0.00000012
     atom  346 type  1   force =    -0.00001513   -0.00000417    0.00000830
     atom  347 type  2   force =    -0.00000519   -0.00000058   -0.00000319
     atom  348 type  2   force =    -0.00000500    0.00000018    0.00000148
     atom  349 type  1   force =     0.00001918   -0.00000267    0.00000491
     atom  350 type  1   force =     0.00001714    0.00000283   -0.00000795
     atom  351 type  2   force =     0.00000639    0.00000010    0.00000008
     atom  352 type  2   force =     0.00000832    0.00000190    0.00000104
     atom  353 type  1   force =     0.00001960    0.00000865   -0.00000900
     atom  354 type  2   force =     0.00000728    0.00000379   -0.00000067
     atom  355 type  2   force =     0.00000917    0.00000412    0.00000019
     atom  356 type  1   force =     0.00001893    0.00001814    0.00000518
     atom  357 type  2   force =     0.00000898    0.00000500   -0.00000111
     atom  358 type  2   force =     0.00000949    0.00000566    0.00000143
     atom  359 type  1   force =     0.00000836    0.00002263    0.00000237
     atom  360 type  2   force =     0.00000806    0.00000788    0.00000018
     atom  361 type  2   force =     0.00000826    0.00000809    0.00000163
     atom  362 type  1   force =    -0.00000263    0.00001579   -0.00000284
     atom  363 type  2   force =     0.00000377    0.00001029    0.00000166
     atom  364 type  2   force =     0.00000369    0.00000954   -0.00000213
     atom  365 type  1   force =    -0.00001069    0.00002125    0.00000022
     atom  366 type  2   force =    -0.00000132    0.00001059   -0.00000116
     atom  367 type  2   force =    -0.00000120    0.00001005   -0.00000170
     atom  368 type  1   force =    -0.00001127    0.00001273   -0.00000753
     atom  369 type  2   force =    -0.00000245    0.00000629   -0.00000141
     atom  370 type  2   force =    -0.00000454    0.00000920   -0.00000107
     atom  371 type  1   force =    -0.00001595    0.00001716    0.00001130
     atom  372 type  2   force =    -0.00000352    0.00000552   -0.00000005
     atom  373 type  2   force =    -0.00000608    0.00000618    0.00000108
     atom  374 type  1   force =    -0.00000626    0.00000408    0.00000118
     atom  375 type  2   force =    -0.00000164    0.00000195    0.00000206
     atom  376 type  2   force =    -0.00000513    0.00000312    0.00000219
     atom  377 type  1   force =     0.00000104   -0.00000724   -0.00000320
     atom  378 type  2   force =    -0.00000187   -0.00000069    0.00000153
     atom  379 type  2   force =    -0.00000083    0.00000067    0.00000258
     atom  380 type  1   force =    -0.00000723   -0.00000099   -0.00000409
     atom  381 type  2   force =    -0.00000168   -0.00000185    0.00000072
     atom  382 type  2   force =     0.00000044    0.00000002    0.00000217
     atom  383 type  1   force =     0.00000297   -0.00000569   -0.00001076
     atom  384 type  2   force =     0.00000028   -0.00000141   -0.00000180
     atom  385 type  2   force =     0.00000090    0.00000032    0.00000142
     atom  386 type  1   force =     0.00000590   -0.00000954   -0.00000638
     atom  387 type  2   force =     0.00000028   -0.00000381   -0.00000184
     atom  388 type  2   force =     0.00000041    0.00000020    0.00000247
     atom  389 type  1   force =     0.00000007   -0.00000710    0.00000108
     atom  390 type  2   force =     0.00000019   -0.00000414    0.00000079
     atom  391 type  2   force =     0.00000137   -0.00000346    0.00000390
     atom  392 type  1   force =    -0.00000253   -0.00001166    0.00000178
     atom  393 type  2   force =    -0.00000063   -0.00000250    0.00000207
     atom  394 type  2   force =     0.00000013   -0.00000608    0.00000196
     atom  395 type  1   force =    -0.00001319   -0.00000654   -0.00000813
     atom  396 type  2   force =    -0.00000266   -0.00000238    0.00000082
     atom  397 type  2   force =    -0.00000437   -0.00000409    0.00000207
     atom  398 type  1   force =     0.00002001    0.00001267   -0.00000194
     atom  399 type  1   force =     0.00002421    0.00001650    0.00001119
     atom  400 type  2   force =     0.00000727    0.00000413    0.00000124
     atom  401 type  2   force =     0.00000850    0.00000509    0.00000164
     atom  402 type  1   force =     0.00001016    0.00002309    0.00001037
     atom  403 type  2   force =     0.00000721    0.00000576    0.00000103
     atom  404 type  2   force =     0.00000780    0.00000609    0.00000150
     atom  405 type  1   force =     0.00000615    0.00002232    0.00000419
     atom  406 type  2   force =     0.00000486    0.00000874   -0.00000098
     atom  407 type  2   force =     0.00000569    0.00000864    0.00000053
     atom  408 type  1   force =    -0.00000081    0.00001980    0.00000729
     atom  409 type  2   force =     0.00000223    0.00000963    0.00000048
     atom  410 type  2   force =     0.00000238    0.00000940   -0.00000056
     atom  411 type  1   force =    -0.00000594    0.00002598   -0.00000053
     atom  412 type  2   force =    -0.00000004    0.00000842   -0.00000103
     atom  413 type  2   force =    -0.00000042    0.00000938    0.00000089
     atom  414 type  1   force =    -0.00000740    0.00001791    0.00000480
     atom  415 type  2   force =    -0.00000234    0.00000789   -0.00000176
     atom  416 type  2   force =    -0.00000155    0.00000836    0.00000240
     atom  417 type  1   force =    -0.00000904    0.00000896   -0.00000099
     atom  418 type  2   force =    -0.00000099    0.00000376    0.00000050
     atom  419 type  2   force =    -0.00000137    0.00000600    0.00000256
     atom  420 type  1   force =    -0.00000022   -0.00000116    0.00000720
     atom  421 type  2   force =     0.00000037    0.00000132    0.00000244
     atom  422 type  2   force =    -0.00000049    0.00000069    0.00000448
     atom  423 type  1   force =     0.00000069   -0.00000392    0.00000395
     atom  424 type  2   force =    -0.00000138    0.00000038    0.00000092
     atom  425 type  2   force =    -0.00000049   -0.00000145    0.00000475
     atom  426 type  1   force =    -0.00000110   -0.00000441    0.00000004
     atom  427 type  2   force =    -0.00000107   -0.00000163    0.00000031
     atom  428 type  2   force =    -0.00000006   -0.00000154    0.00000284
     atom  429 type  1   force =     0.00000273   -0.00000703   -0.00000505
     atom  430 type  2   force =    -0.00000073   -0.00000409   -0.00000161
     atom  431 type  2   force =    -0.00000066   -0.00000316    0.00000562
     atom  432 type  1   force =    -0.00000135   -0.00001202   -0.00000382
     atom  433 type  2   force =     0.00000073   -0.00000520    0.00000028
     atom  434 type  2   force =     0.00000029   -0.00000644    0.00000493
     atom  435 type  1   force =    -0.00000689   -0.00002296    0.00001193
     atom  436 type  2   force =    -0.00000034   -0.00000579    0.00000020
     atom  437 type  2   force =     0.00000108   -0.00000732    0.00000377
     atom  438 type  1   force =     0.00001709    0.00001441   -0.00000572
     atom  439 type  1   force =     0.00001094    0.00001251   -0.00001065
     atom  440 type  2   force =     0.00000408    0.00000694    0.00000006
     atom  441 type  2   force =     0.00000546    0.00000652    0.00000143
     atom  442 type  1   force =     0.00000623    0.00002080    0.00000877
     atom  443 type  2   force =     0.00000209    0.00000780   -0.00000095
     atom  444 type  2   force =     0.00000294    0.00000788    0.00000148
     atom  445 type  1   force =     0.00000535    0.00002158   -0.00000687
     atom  446 type  2   force =     0.00000032    0.00000926   -0.00000235
     atom  447 type  2   force =     0.00000119    0.00000928    0.00000060
     atom  448 type  1   force =    -0.00000494    0.00002413   -0.00000153
     atom  449 type  2   force =    -0.00000035    0.00000862   -0.00000276
     atom  450 type  2   force =    -0.00000007    0.00000884    0.00000213
     atom  451 type  1   force =     0.00000154    0.00001470   -0.00000703
     atom  452 type  2   force =     0.00000084    0.00000697    0.00000029
     atom  453 type  2   force =     0.00000116    0.00000705    0.00000181
     atom  454 type  1   force =     0.00000235    0.00000205   -0.00000451
     atom  455 type  2   force =     0.00000288    0.00000280    0.00000042
     atom  456 type  2   force =     0.00000079    0.00000413   -0.00000022
     atom  457 type  1   force =    -0.00000211   -0.00000001    0.00000394
     atom  458 type  2   force =     0.00000290    0.00000236    0.00000232
     atom  459 type  2   force =    -0.00000115   -0.00000081    0.00000332
     atom  460 type  1   force =     0.00000622    0.00000187    0.00001229
     atom  461 type  2   force =     0.00000079   -0.00000099    0.00000186
     atom  462 type  2   force =     0.00000089   -0.00000122    0.00000256
     atom  463 type  1   force =    -0.00000084   -0.00001315    0.00000308
     atom  464 type  2   force =     0.00000187   -0.00000369    0.00000188
     atom  465 type  2   force =     0.00000154   -0.00000460    0.00000509
     atom  466 type  1   force =    -0.00000056   -0.00001944   -0.00000200
     atom  467 type  2   force =     0.00000085   -0.00000736   -0.00000193
     atom  468 type  2   force =     0.00000019   -0.00000761    0.00000316
     atom  469 type  1   force =     0.00000747    0.00000770   -0.00000151
     atom  470 type  1   force =     0.00000763    0.00001431   -0.00000475
     atom  471 type  2   force =    -0.00000085    0.00000760   -0.00000063
     atom  472 type  2   force =     0.00000011    0.00000662    0.00000073
     atom  473 type  1   force =     0.00001018    0.00002016   -0.00001113
     atom  474 type  2   force =    -0.00000074    0.00000719   -0.00000312
     atom  475 type  2   force =    -0.00000022    0.00000755    0.00000178
     atom  476 type  1   force =     0.00000965    0.00002261   -0.00000787
     atom  477 type  2   force =     0.00000174    0.00000636   -0.00000104
     atom  478 type  2   force =     0.00000034    0.00000743    0.00000039
     atom  479 type  1   force =     0.00000962    0.00000900   -0.00000967
     atom  480 type  2   force =     0.00000184    0.00000467   -0.00000383
     atom  481 type  2   force =     0.00000271    0.00000427    0.00000092
     atom  482 type  1   force =     0.00000582   -0.00000169   -0.00000624
     atom  483 type  2   force =     0.00000401    0.00000189   -0.00000098
     atom  484 type  2   force =     0.00000371    0.00000123    0.00000185
     atom  485 type  1   force =     0.00000265   -0.00000008    0.00000374
     atom  486 type  2   force =     0.00000361   -0.00000026   -0.00000326
     atom  487 type  2   force =     0.00000176   -0.00000165   -0.00000044
     atom  488 type  1   force =     0.00001303   -0.00000770    0.00000469
     atom  489 type  2   force =     0.00000344   -0.00000387   -0.00000247
     atom  490 type  2   force =     0.00000358   -0.00000516    0.00000135
     atom  491 type  1   force =    -0.00000266    0.00001483   -0.00000447
     atom  492 type  1   force =     0.00000477    0.00002021    0.00005063
     atom  493 type  2   force =    -0.00000157    0.00000538   -0.00000105
     atom  494 type  2   force =    -0.00000127    0.00000361    0.00000178
     atom  495 type  1   force =     0.00000314    0.00001571    0.00001154
     atom  496 type  2   force =     0.00000081    0.00000290    0.00000516
     atom  497 type  2   force =     0.00000167    0.00000366    0.00000459
     atom  498 type  1   force =     0.00000225    0.00000118   -0.00001414
     atom  499 type  2   force =     0.00000284    0.00000215   -0.00000074
     atom  500 type  2   force =     0.00000294    0.00000150    0.00000052
     atom  501 type  1   force =     0.00000723   -0.00000957   -0.00001423
     atom  502 type  2   force =     0.00000551   -0.00000009   -0.00000291
     atom  503 type  2   force =     0.00000525   -0.00000039    0.00000127
     atom  504 type  1   force =     0.00000008    0.00000019    0.00000577
     atom  505 type  1   force =     0.00000362   -0.00000541    0.00002578
     atom  506 type  2   force =     0.00000137    0.00000019    0.00000081
     atom  507 type  2   force =     0.00000062   -0.00000026    0.00000323

     Total force =     0.034030     Total SCF correction =     0.000283

     Writing all to output data dir ./tmp/bilayer.save/
 
     init_run     :      4.00s CPU      6.28s WALL (       1 calls)
     electrons    :   1168.13s CPU   1591.11s WALL (       1 calls)
     forces       :      0.91s CPU      1.07s WALL (       1 calls)

     Called by init_run:
     wfcinit      :      0.25s CPU      0.88s WALL (       1 calls)
                                        0.88s GPU  (       1 calls)
     potinit      :      2.28s CPU      2.64s WALL (       1 calls)
     hinit0       :      0.77s CPU      1.04s WALL (       1 calls)

     Called by electrons:
     c_bands      :    922.07s CPU   1328.36s WALL (      74 calls)
     sum_band     :    110.92s CPU    116.05s WALL (      74 calls)
     v_of_rho     :    117.59s CPU    127.18s WALL (      75 calls)
     v_h          :      0.97s CPU      1.28s WALL (      75 calls)
     v_xc         :    115.93s CPU    125.15s WALL (      75 calls)
     mix_rho      :     19.45s CPU     21.40s WALL (      74 calls)
     vdW_kernel   :      0.68s CPU      0.69s WALL (       1 calls)

     Called by c_bands:
     init_us_2    :      2.14s CPU      2.42s WALL (     147 calls)
     init_us_2:gp :      2.13s CPU      2.42s WALL (     147 calls)
     regterg      :    914.14s CPU   1317.87s WALL (      79 calls)

     Called by sum_band:
     sum_band:wei :      0.02s CPU      0.02s WALL (      74 calls)
                                        0.02s GPU  (      74 calls)
     sum_band:loo :    109.02s CPU    113.05s WALL (      74 calls)
                                      113.05s GPU  (      74 calls)
     sum_band:buf :      0.00s CPU      0.00s WALL (      74 calls)
                                        0.00s GPU  (      74 calls)
     sum_band:ini :      1.05s CPU      1.47s WALL (      74 calls)
                                        1.47s GPU  (      74 calls)

     Called by *egterg:
     rdiaghg      :    672.60s CPU    978.19s WALL (     580 calls)
                                      976.19s GPU  (     580 calls)
     regterg:over :     22.41s CPU     30.21s WALL (     501 calls)
     regterg:upda :      4.53s CPU      4.71s WALL (     501 calls)
     regterg:last :      8.27s CPU      8.30s WALL (     158 calls)
     h_psi        :    187.05s CPU    261.34s WALL (     580 calls)
                                      261.08s GPU  (     580 calls)
     g_psi        :      0.00s CPU      0.24s WALL (     501 calls)
                                        0.23s GPU  (     501 calls)

     Called by h_psi:
     h_psi:calbec :     22.16s CPU     34.05s WALL (     580 calls)
                                       34.04s GPU  (     580 calls)
     vloc_psi     :    155.58s CPU    217.72s WALL (     580 calls)
                                      217.48s GPU  (     580 calls)
     add_vuspsi   :      1.29s CPU      9.37s WALL (     580 calls)
                                        9.36s GPU  (     580 calls)

     General routines
     calbec       :     22.66s CPU     34.67s WALL (     584 calls)
     fft          :     43.68s CPU     50.30s WALL (    4351 calls)
                                        1.22s GPU  (     377 calls)
     ffts         :     14.52s CPU     16.33s WALL (    1431 calls)
     fftw         :    250.82s CPU    327.60s WALL (  127732 calls)
                                      320.56s GPU  (  127732 calls)
     davcio       :      0.16s CPU      1.09s WALL (    1461 calls)
 
     Parallel routines
 
     PWSCF        :  19m36.43s CPU  27m 5.77s WALL

 
   This run was terminated on:  21:10: 9  18Dec2023            

=------------------------------------------------------------------------------=
   JOB DONE.
=------------------------------------------------------------------------------=
